 Gaussian 16, Revision B.01,
 Gaussian 16:  ES64L-G16RevB.01 20-Dec-2017

 ----------------------------------------------------------------------
 #P PBE1PBE/def2TZVP opt freq EmpiricalDispersion=GD3 Int=(grid=99590)
 scrf=(iefpcm, solvent=water)
 ----------------------------------------------------------------------

 -------------
 TFP-CF3_inter
 -------------
 Symbolic Z-matrix:
 Charge =  0 Multiplicity = 1

 SCF Done:  E(RPBE1PBE) =  -1289.07926889     A.U. after   13 cycles
 SCF Done:  E(RPBE1PBE) =  -1289.13744004     A.U. after   11 cycles
 SCF Done:  E(RPBE1PBE) =  -1289.14302018     A.U. after   13 cycles
 SCF Done:  E(RPBE1PBE) =  -1289.16716517     A.U. after   12 cycles
 SCF Done:  E(RPBE1PBE) =  -1289.17559895     A.U. after   11 cycles
 SCF Done:  E(RPBE1PBE) =  -1289.17738611     A.U. after   10 cycles
 SCF Done:  E(RPBE1PBE) =  -1289.17825711     A.U. after   11 cycles
 SCF Done:  E(RPBE1PBE) =  -1289.17898434     A.U. after   11 cycles
 SCF Done:  E(RPBE1PBE) =  -1289.17852906     A.U. after   11 cycles
 SCF Done:  E(RPBE1PBE) =  -1289.17938591     A.U. after   10 cycles
 SCF Done:  E(RPBE1PBE) =  -1289.18075918     A.U. after   11 cycles
 SCF Done:  E(RPBE1PBE) =  -1289.18090021     A.U. after   10 cycles
 SCF Done:  E(RPBE1PBE) =  -1289.18100511     A.U. after   10 cycles
 SCF Done:  E(RPBE1PBE) =  -1289.18105366     A.U. after    9 cycles
 SCF Done:  E(RPBE1PBE) =  -1289.18110026     A.U. after   10 cycles
 SCF Done:  E(RPBE1PBE) =  -1289.18110843     A.U. after    9 cycles
 SCF Done:  E(RPBE1PBE) =  -1289.18111346     A.U. after    9 cycles
 SCF Done:  E(RPBE1PBE) =  -1289.18111455     A.U. after    8 cycles
 SCF Done:  E(RPBE1PBE) =  -1289.18111469     A.U. after    8 cycles
 Optimization completed.
    -- Stationary point found.
 Normal termination of Gaussian 16 at Sat Jul  6 20:51:58 2024.

 ----------------------------------------------------------------------
 #P Geom=AllCheck Guess=TCheck SCRF=Check GenChk RPBE1PBE/def2TZVP Freq
 ----------------------------------------------------------------------

 Structure from the checkpoint file:  "/scratch/Gau-727533.chk"
 -------------
 TFP-CF3_inter
 -------------
 Charge =  0 Multiplicity = 1

                         Standard orientation:
 ---------------------------------------------------------------------
 Center     Atomic      Atomic             Coordinates (Angstroms)
 Number     Number       Type             X           Y           Z
 ---------------------------------------------------------------------
      1          1           0        3.151408   -1.367348   -0.502585
      2          8           0        2.598908   -0.318389    1.574065
      3          6           0        3.305584    0.213807    0.777125
      4          7           0        3.879439   -0.675329   -0.312613
      5          1           0        3.966758   -0.125043   -1.167079
      6          6           0        5.155179   -1.326106    0.075363
      7          1           0        5.909371   -0.560435    0.238938
      8          1           0        4.987217   -1.896660    0.985616
      9          1           0        5.465164   -1.985937   -0.731068
     10          6           0        3.914358    1.565355    0.854380
     11          1           0        3.228733    2.220909    1.386432
     12          1           0        4.841435    1.493405    1.432283
     13          1           0        4.136907    1.973019   -0.128494
     14          8           0        1.922496    0.842980   -1.008477
     15          6           0        0.721706    0.543427   -0.722799
     16          6           0        0.258971   -0.788137   -0.596503
     17          6           0       -0.284100    1.513515   -0.476048
     18          6           0       -1.036590   -1.124940   -0.278028
     19          6           0       -1.575710    1.177408   -0.161475
     20          6           0       -2.003975   -0.148140   -0.047328
     21          9           0        1.139470   -1.785113   -0.820202
     22          9           0        0.048899    2.807231   -0.559329
     23          9           0       -1.331157   -2.423104   -0.199522
     24          9           0       -2.454131    2.162732    0.050377
     25          6           0       -3.427093   -0.418121    0.305202
     26          9           0       -3.763668    0.126540    1.491581
     27          9           0       -4.277907    0.111012   -0.596666
     28          9           0       -3.715315   -1.718157    0.386007
 ---------------------------------------------------------------------

 SCF Done:  E(RPBE1PBE) =  -1289.18111469     A.U. after    1 cycles

 The electronic state is 1-A.
 Alpha  occ. eigenvalues --  -24.81058 -24.80421 -24.80414 -24.80372 -24.80296
 Alpha  occ. eigenvalues --  -24.80132 -24.79245 -19.23341 -19.16758 -14.50832
 Alpha  occ. eigenvalues --  -10.48409 -10.38286 -10.33483 -10.33120 -10.30793
 Alpha  occ. eigenvalues --  -10.30749 -10.29602 -10.28561 -10.25841 -10.24299
 Alpha  occ. eigenvalues --   -1.35691  -1.28980  -1.28785  -1.27286  -1.26826
 Alpha  occ. eigenvalues --   -1.26549  -1.26033  -1.13597  -1.03835  -1.02742
 Alpha  occ. eigenvalues --   -0.91002  -0.81270  -0.80151  -0.78980  -0.75874
 Alpha  occ. eigenvalues --   -0.72784  -0.67444  -0.67235  -0.64210  -0.62515
 Alpha  occ. eigenvalues --   -0.62401  -0.61965  -0.61124  -0.58990  -0.58625
 Alpha  occ. eigenvalues --   -0.56310  -0.55469  -0.54941  -0.53529  -0.52999
 Alpha  occ. eigenvalues --   -0.51981  -0.51529  -0.49675  -0.49613  -0.49225
 Alpha  occ. eigenvalues --   -0.48393  -0.48303  -0.47820  -0.46607  -0.45908
 Alpha  occ. eigenvalues --   -0.45333  -0.45187  -0.45066  -0.44247  -0.43392
 Alpha  occ. eigenvalues --   -0.43241  -0.42908  -0.42434  -0.41253  -0.40799
 Alpha  occ. eigenvalues --   -0.39374  -0.38977  -0.34495  -0.32563  -0.27787
 Alpha  occ. eigenvalues --   -0.26008  -0.22837
 Alpha virt. eigenvalues --   -0.04345  -0.00143   0.00492   0.01405   0.03806
 Alpha virt. eigenvalues --    0.06669   0.07378   0.08664   0.08781   0.10932
 Alpha virt. eigenvalues --    0.11184   0.11554   0.12282   0.12803   0.13164

 Mulliken charges:
               1
     1  H    0.294839
     2  O   -0.280643
     3  C    0.225576
     4  N   -0.091312
     5  H    0.312875
     6  C   -0.323525
     7  H    0.185466
     8  H    0.182222
     9  H    0.188106
    10  C   -0.370656
    11  H    0.164192
    12  H    0.179277
    13  H    0.160963
    14  O   -0.576195
    15  C    0.119530
    16  C    0.162740
    17  C    0.116337
    18  C    0.154915
    19  C    0.148927
    20  C   -0.132209
    21  F   -0.225999
    22  F   -0.199585
    23  F   -0.180343
    24  F   -0.185471
    25  C    0.469597
    26  F   -0.170465
    27  F   -0.170608
    28  F   -0.158553
 Sum of Mulliken charges =  -0.00000

 Dipole moment (field-independent basis, Debye):
    X=             17.1444    Y=             -2.8327    Z=             -0.6130  Tot=             17.3876
 Quadrupole moment (field-independent basis, Debye-Ang):
   XX=            -54.8900   YY=           -115.3699   ZZ=           -112.7811
   XY=             -8.9217   XZ=             -0.3185   YZ=              5.3806

  Exact polarizability: 246.583   6.036 178.899 -10.479  -1.121 131.755
 Approx polarizability: 257.499   9.618 208.992 -20.312  -5.452 152.913

                      1                      2                      3
                      A                      A                      A
 Frequencies --     24.7491                31.1201                40.0700
 Red. masses --      7.4841                10.3691                 6.8976
 Frc consts  --      0.0027                 0.0059                 0.0065
 IR Inten    --      5.2014                 1.0909                 1.5759

                      4                      5                      6
                      A                      A                      A
 Frequencies --     45.7577                63.7590                78.4785
 Red. masses --      4.2584                 5.2152                 3.2070
 Frc consts  --      0.0053                 0.0125                 0.0116
 IR Inten    --      6.8904                 9.7683                12.1372

                      7                      8                      9
                      A                      A                      A
 Frequencies --     91.9802               129.2777               137.6766
 Red. masses --      3.9967                 4.8421                13.1809
 Frc consts  --      0.0199                 0.0477                 0.1472
 IR Inten    --     39.7673                15.1943                 8.2197

                     10                     11                     12
                      A                      A                      A
 Frequencies --    147.8113               158.8250               165.6836
 Red. masses --      2.3756                 3.4449                 2.6544
 Frc consts  --      0.0306                 0.0512                 0.0429
 IR Inten    --     25.4522                 0.1179                21.5407

                     13                     14                     15
                      A                      A                      A
 Frequencies --    171.0356               205.6747               212.4607
 Red. masses --     11.6069                10.8681                 1.1016
 Frc consts  --      0.2001                 0.2709                 0.0293
 IR Inten    --     22.1961                32.8649                 2.8506

                     16                     17                     18
                      A                      A                      A
 Frequencies --    266.8800               276.4075               291.1979
 Red. masses --      4.0765                13.2668                12.5044
 Frc consts  --      0.1711                 0.5972                 0.6247
 IR Inten    --      8.4667                 7.9070                 4.4051

                     19                     20                     21
                      A                      A                      A
 Frequencies --    301.5067               312.8644               327.6255
 Red. masses --     18.1394                18.5745                15.6992
 Frc consts  --      0.9716                 1.0712                 0.9928
 IR Inten    --      1.6364                 2.3505                13.9157

                     22                     23                     24
                      A                      A                      A
 Frequencies --    359.9640               377.4760               383.0218
 Red. masses --     16.2253                14.6001                12.5852
 Frc consts  --      1.2387                 1.2257                 1.0878
 IR Inten    --     27.7622                 5.6636                 0.0099

                     25                     26                     27
                      A                      A                      A
 Frequencies --    411.4224               439.5999               450.2398
 Red. masses --      2.2732                14.3682                15.5414
 Frc consts  --      0.2267                 1.6359                 1.8562
 IR Inten    --     17.7091                 0.8147                 5.5341

                     28                     29                     30
                      A                      A                      A
 Frequencies --    490.3399               511.2647               551.3656
 Red. masses --     15.8739                 3.7240                17.8314
 Frc consts  --      2.2487                 0.5735                 3.1939
 IR Inten    --     26.7420                26.0766                 1.7800

                     31                     32                     33
                      A                      A                      A
 Frequencies --    567.5099               587.4329               616.6552
 Red. masses --     15.3773                 2.7941                15.5911
 Frc consts  --      2.9180                 0.5681                 3.4931
 IR Inten    --      2.1493                56.7307                 8.7639

                     34                     35                     36
                      A                      A                      A
 Frequencies --    663.2892               716.2175               717.2492
 Red. masses --     12.2153                 4.5168                12.7414
 Frc consts  --      3.1664                 1.3651                 3.8620
 IR Inten    --      0.0395                28.6755                78.6344

                     37                     38                     39
                      A                      A                      A
 Frequencies --    719.6134               763.2090               803.3379
 Red. masses --      7.9579                12.1039                12.6538
 Frc consts  --      2.4280                 4.1540                 4.8113
 IR Inten    --     16.0595                 8.3543                 5.1387

                     40                     41                     42
                      A                      A                      A
 Frequencies --    836.6640               892.3964               980.2385
 Red. masses --      1.3045                14.6810                 1.7956
 Frc consts  --      0.5380                 6.8884                 1.0166
 IR Inten    --     14.0637               192.0224               110.8574

                     43                     44                     45
                      A                      A                      A
 Frequencies --    995.8986              1012.9915              1022.1440
 Red. masses --     12.9577                 3.5575                 1.4925
 Frc consts  --      7.5720                 2.1509                 0.9187
 IR Inten    --    513.4354                11.2831                74.1339

                     46                     47                     48
                      A                      A                      A
 Frequencies --   1102.6842              1120.7224              1126.4495
 Red. masses --     13.0463                 1.6652                12.9401
 Frc consts  --      9.3463                 1.2323                 9.6741
 IR Inten    --    440.4025               106.4935                80.5900

                     49                     50                     51
                      A                      A                      A
 Frequencies --   1133.2760              1152.2104              1174.0321
 Red. masses --     13.3556                 1.4732                11.6108
 Frc consts  --     10.1061                 1.1523                 9.4291
 IR Inten    --      2.9508               193.7998               114.4466

                     52                     53                     54
                      A                      A                      A
 Frequencies --   1218.7744              1282.7075              1319.7554
 Red. masses --      2.0085                10.1541                 1.3021
 Frc consts  --      1.7578                 9.8435                 1.3363
 IR Inten    --    110.3354               772.8584                41.6232

                     55                     56                     57
                      A                      A                      A
 Frequencies --   1341.9322              1343.6956              1378.5785
 Red. masses --     10.3438                 8.4569                 1.3369
 Frc consts  --     10.9746                 8.9963                 1.4969
 IR Inten    --    431.0045               572.7175               110.2435

                     58                     59                     60
                      A                      A                      A
 Frequencies --   1391.5127              1436.4542              1456.0660
 Red. masses --      1.2843                 1.0478                 1.1332
 Frc consts  --      1.4651                 1.2738                 1.4155
 IR Inten    --     49.7876                21.8067                 1.8286

                     61                     62                     63
                      A                      A                      A
 Frequencies --   1460.7292              1464.3370              1490.4052
 Red. masses --      4.2719                 1.3114                 1.0329
 Frc consts  --      5.3705                 1.6568                 1.3518
 IR Inten    --    179.5196                13.9363                25.3706

                     64                     65                     66
                      A                      A                      A
 Frequencies --   1491.7397              1545.7960              1574.8412
 Red. masses --      1.0399                12.0116                10.8094
 Frc consts  --      1.3634                16.9105                15.7953
 IR Inten    --     37.0614               519.8874               763.6267

                     67                     68                     69
                      A                      A                      A
 Frequencies --   1607.1413              1628.3049              1691.0694
 Red. masses --     11.8217                 1.0838                11.9109
 Frc consts  --     17.9903                 1.6931                20.0686
 IR Inten    --     62.4195                86.4262               370.5129

                     70                     71                     72
                      A                      A                      A
 Frequencies --   1869.4499              3064.7404              3100.6326
 Red. masses --     10.4329                 1.0443                 1.0312
 Frc consts  --     21.4823                 5.7790                 5.8410
 IR Inten    --    351.9491                 2.6776                 7.4583

                     73                     74                     75
                      A                      A                      A
 Frequencies --   3155.2317              3199.3961              3201.4341
 Red. masses --      1.0897                 1.1058                 1.1081
 Frc consts  --      6.3916                 6.6693                 6.6916
 IR Inten    --      0.9083                 1.0733                 0.7028

                     76                     77                     78
                      A                      A                      A
 Frequencies --   3203.7931              3448.5157              3511.1291
 Red. masses --      1.1088                 1.0575                 1.0898
 Frc consts  --      6.7053                 7.4098                 7.9159
 IR Inten    --      1.8755               169.1124               128.2778

 - Thermochemistry -
 -------------------
 Temperature   298.150 Kelvin.  Pressure   1.00000 Atm.
 Atom     1 has atomic number  1 and mass   1.00783

 Molecular mass:   307.04433 amu.
 Principal axes and moments of inertia in atomic units:
                           1         2         3
     Eigenvalues --  2852.715249394.00386**********
           X            0.99998  -0.00400   0.00543
           Y            0.00394   0.99993   0.01124
           Z           -0.00548  -0.01122   0.99992
 This molecule is an asymmetric top.
 Rotational symmetry number  1.
 Warning -- assumption of classical behavior for rotation
           may cause significant error
 Rotational temperatures (Kelvin)      0.03036     0.00922     0.00784
 Rotational constants (GHZ):           0.63264     0.19212     0.16331
 Zero-point vibrational energy     478733.1 (Joules/Mol)
                                  114.41995 (Kcal/Mol)
 Warning -- explicit consideration of  33 degrees of freedom as
           vibrations may cause significant error
 Vibrational temperatures:     35.61    44.77    57.65    65.84    91.73
          (Kelvin)            112.91   132.34   186.00   198.09   212.67
                              228.51   238.38   246.08   295.92   305.68
                              383.98   397.69   418.97   433.80   450.14
                              471.38   517.91   543.10   551.08   591.95
                              632.49   647.79   705.49   735.60   793.29
                              816.52   845.18   887.23   954.33  1030.48
                             1031.96  1035.36  1098.09  1155.82  1203.77
                             1283.96  1410.34  1432.88  1457.47  1470.64
                             1586.52  1612.47  1620.71  1630.53  1657.77
                             1689.17  1753.54  1845.53  1898.83  1930.74
                             1933.28  1983.47  2002.08  2066.74  2094.95
                             2101.66  2106.85  2144.36  2146.28  2224.06
                             2265.85  2312.32  2342.77  2433.07  2689.72
                             4409.48  4461.12  4539.67  4603.22  4606.15
                             4609.54  4961.64  5051.73

 Zero-point correction=                           0.182340 (Hartree/Particle)
 Thermal correction to Energy=                    0.202574
 Thermal correction to Enthalpy=                  0.203519
 Thermal correction to Gibbs Free Energy=         0.131337
 Sum of electronic and zero-point Energies=          -1288.998775
 Sum of electronic and thermal Energies=             -1288.978540
 Sum of electronic and thermal Enthalpies=           -1288.977596
 Sum of electronic and thermal Free Energies=        -1289.049777

                     E (Thermal)             CV                S
                      KCal/Mol        Cal/Mol-Kelvin    Cal/Mol-Kelvin
 Total                  127.117             70.986            151.918
 Electronic               0.000              0.000              0.000
 Translational            0.889              2.981             43.062
 Rotational               0.889              2.981             34.048
 Vibrational            125.340             65.024             74.808
 Vibration     1          0.593              1.985              6.211
 Vibration     2          0.594              1.983              5.757
 Vibration     3          0.594              1.981              5.256
 Vibration     4          0.595              1.979              4.993
 Vibration     5          0.597              1.972              4.337
 Vibration     6          0.600              1.964              3.929
 Vibration     7          0.602              1.955              3.618
 Vibration     8          0.612              1.924              2.957
 Vibration     9          0.614              1.916              2.836
 Vibration    10          0.617              1.905              2.700
 Vibration    11          0.621              1.893              2.564
 Vibration    12          0.624              1.885              2.484
 Vibration    13          0.626              1.878              2.424
 Vibration    14          0.640              1.832              2.082
 Vibration    15          0.643              1.822              2.022
 Vibration    16          0.672              1.734              1.616
 Vibration    17          0.678              1.717              1.556
 Vibration    18          0.687              1.690              1.467
 Vibration    19          0.693              1.671              1.409
 Vibration    20          0.701              1.649              1.347
 Vibration    21          0.711              1.620              1.272
 Vibration    22          0.734              1.555              1.122
 Vibration    23          0.748              1.518              1.049
 Vibration    24          0.752              1.506              1.027
 Vibration    25          0.775              1.445              0.922
 Vibration    26          0.800              1.384              0.828
 Vibration    27          0.809              1.360              0.795
 Vibration    28          0.846              1.271              0.683
 Vibration    29          0.866              1.225              0.631
 Vibration    30          0.907              1.137              0.541
 Vibration    31          0.923              1.102              0.509
 Vibration    32          0.945              1.059              0.472
 Vibration    33          0.976              0.997              0.422

                           ! Non-Optimized Parameters !
 Normal termination of Gaussian 16 at Sat Jul  6 21:15:05 2024.
