 Gaussian 16, Revision B.01,
 Gaussian 16:  ES64L-G16RevB.01 20-Dec-2017

 ------------------------------------------------
 # opt freq b3lyp/6-311++g(d,p) geom=connectivity
 ------------------------------------------------

 -------------------
 Title Card Required
 -------------------
 Symbolic Z-matrix:
 Charge =  0 Multiplicity = 1

 SCF Done:  E(RB3LYP) =  -76.4580942451     A.U. after    8 cycles
 SCF Done:  E(RB3LYP) =  -76.4585199762     A.U. after    7 cycles
 SCF Done:  E(RB3LYP) =  -76.4585319615     A.U. after    6 cycles
 Optimization completed.
    -- Stationary point found.
 Normal termination of Gaussian 16 at Tue Feb 25 16:09:34 2025.

 ----------------------------------------------------------------------
 #N Geom=AllCheck Guess=TCheck SCRF=Check GenChk RB3LYP/6-311++G(d,p) F
 req
 ----------------------------------------------------------------------

 Structure from the checkpoint file:  "water.chk"
 -------------------
 Title Card Required
 -------------------
 Charge =  0 Multiplicity = 1

                         Standard orientation:
 ---------------------------------------------------------------------
 Center     Atomic      Atomic             Coordinates (Angstroms)
 Number     Number       Type             X           Y           Z
 ---------------------------------------------------------------------
      1          8           0        0.000000   -0.000000    0.117035
      2          1           0        0.000000    0.763492   -0.468140
      3          1           0       -0.000000   -0.763492   -0.468140
 ---------------------------------------------------------------------

 SCF Done:  E(RB3LYP) =  -76.4585319615     A.U. after    1 cycles

 The electronic state is 1-A1.
 Alpha  occ. eigenvalues --  -19.13332  -1.02328  -0.54326  -0.39678  -0.32296
 Alpha virt. eigenvalues --   -0.02329   0.02923   0.13821   0.15123   0.15360
 Alpha virt. eigenvalues --    0.15366   0.22031   0.22521   0.49837   0.54462
 Alpha virt. eigenvalues --    0.95441   0.99294   1.00326   1.23068   1.25029

 Mulliken charges:
               1
     1  O   -0.502427
     2  H    0.251214
     3  H    0.251214
 Sum of Mulliken charges =   0.00000

 Dipole moment (field-independent basis, Debye):
    X=             -0.0000    Y=              0.0000    Z=             -2.1590  Tot=              2.1590
 Quadrupole moment (field-independent basis, Debye-Ang):
   XX=             -7.8055   YY=             -4.4428   ZZ=             -6.5439
   XY=              0.0000   XZ=              0.0000   YZ=              0.0000

  Exact polarizability:   6.932   0.000   8.320   0.000   0.000   6.889
 Approx polarizability:   7.024   0.000  10.131   0.000  -0.000   7.993

                      1                      2                      3
                     A1                     A1                     B2
 Frequencies --   1602.4365              3818.8124              3923.9167
 Red. masses --      1.0829                 1.0449                 1.0824
 Frc consts  --      1.6384                 8.9782                 9.8194
 IR Inten    --     66.7263                 9.2211                56.9048

 - Thermochemistry -
 -------------------
 Temperature   298.150 Kelvin.  Pressure   1.00000 Atm.
 Atom     1 has atomic number  8 and mass  15.99491

 Molecular mass:    18.01056 amu.
 Principal axes and moments of inertia in atomic units:
                           1         2         3
     Eigenvalues --     2.18897   4.19587   6.38484
           X            0.00000   0.00000   1.00000
           Y            1.00000   0.00000   0.00000
           Z           -0.00000   1.00000  -0.00000
 This molecule is an asymmetric top.
 Rotational symmetry number  2.
 Rotational temperatures (Kelvin)     39.56843    20.64264    13.56556
 Rotational constants (GHZ):         824.47227   430.12285   282.66040
 Zero-point vibrational energy      55896.5 (Joules/Mol)
                                   13.35958 (Kcal/Mol)
 Vibrational temperatures:   2305.55  5494.42  5645.64
          (Kelvin)

 Zero-point correction=                           0.021290 (Hartree/Particle)
 Thermal correction to Energy=                    0.024126
 Thermal correction to Enthalpy=                  0.025070
 Thermal correction to Gibbs Free Energy=         0.003648
 Sum of electronic and zero-point Energies=            -76.437242
 Sum of electronic and thermal Energies=               -76.434406
 Sum of electronic and thermal Enthalpies=             -76.433462
 Sum of electronic and thermal Free Energies=          -76.454884

                     E (Thermal)             CV                S
                      KCal/Mol        Cal/Mol-Kelvin    Cal/Mol-Kelvin
 Total                   15.139              6.014             45.087
 Electronic               0.000              0.000              0.000
 Translational            0.889              2.981             34.608
 Rotational               0.889              2.981             10.471
 Vibrational             13.362              0.052              0.008

 Optimization completed.
    -- Stationary point found.
 Normal termination of Gaussian 16 at Tue Feb 25 16:09:37 2025.
