 Gaussian 16, Revision B.01,
 Gaussian 16:  ES64L-G16RevB.01 20-Dec-2017

 ----------------------------------------------------------------------
 #P PBE1PBE/def2TZVP opt freq EmpiricalDispersion=GD3 Int=(grid=99590)
 scrf=(iefpcm, solvent=water)
 ----------------------------------------------------------------------

 -------------------
 y=chf2 intermediate
 -------------------
 Symbolic Z-matrix:
 Charge =  0 Multiplicity = 1

 SCF Done:  E(RPBE1PBE) =  -1249.86499454     A.U. after   12 cycles
 SCF Done:  E(RPBE1PBE) =  -1249.86753547     A.U. after   10 cycles
 SCF Done:  E(RPBE1PBE) =  -1249.86846794     A.U. after   10 cycles
 SCF Done:  E(RPBE1PBE) =  -1249.86793876     A.U. after   10 cycles
 SCF Done:  E(RPBE1PBE) =  -1249.86900602     A.U. after   10 cycles
 SCF Done:  E(RPBE1PBE) =  -1249.86924240     A.U. after    9 cycles
 SCF Done:  E(RPBE1PBE) =  -1249.86934226     A.U. after    9 cycles
 SCF Done:  E(RPBE1PBE) =  -1249.86921747     A.U. after   11 cycles
 SCF Done:  E(RPBE1PBE) =  -1249.86945068     A.U. after   10 cycles
 SCF Done:  E(RPBE1PBE) =  -1249.86958121     A.U. after    9 cycles
 SCF Done:  E(RPBE1PBE) =  -1249.86981304     A.U. after   10 cycles
 SCF Done:  E(RPBE1PBE) =  -1249.86988703     A.U. after    9 cycles
 SCF Done:  E(RPBE1PBE) =  -1249.86990097     A.U. after    8 cycles
 SCF Done:  E(RPBE1PBE) =  -1249.86991650     A.U. after    9 cycles
 SCF Done:  E(RPBE1PBE) =  -1249.86992163     A.U. after    8 cycles
 SCF Done:  E(RPBE1PBE) =  -1249.86992365     A.U. after    7 cycles
 SCF Done:  E(RPBE1PBE) =  -1249.86992484     A.U. after    7 cycles
 SCF Done:  E(RPBE1PBE) =  -1249.86992501     A.U. after    6 cycles
 SCF Done:  E(RPBE1PBE) =  -1249.86992512     A.U. after    5 cycles
 Optimization completed.
    -- Stationary point found.
 Normal termination of Gaussian 16 at Thu Feb  6 14:00:59 2025.

 ----------------------------------------------------------------------
 #P Geom=AllCheck Guess=TCheck SCRF=Check GenChk RPBE1PBE/def2TZVP Freq
 ----------------------------------------------------------------------

 Structure from the checkpoint file:  "/scratch/Gau-18204.chk"
 -------------------
 y=chf2 intermediate
 -------------------
 Charge =  0 Multiplicity = 1

                         Standard orientation:
 ---------------------------------------------------------------------
 Center     Atomic      Atomic             Coordinates (Angstroms)
 Number     Number       Type             X           Y           Z
 ---------------------------------------------------------------------
      1          1           0       -1.904082    1.880333   -0.944637
      2          8           0       -1.537511    0.368367    1.230892
      3          6           0       -1.925470    0.045974    0.105778
      4          7           0       -2.681665    1.283594   -0.668387
      5          1           0       -3.124217    0.970294   -1.530495
      6          6           0       -3.618758    2.037607    0.179102
      7          1           0       -4.517834    1.449056    0.336168
      8          1           0       -3.124165    2.221904    1.130131
      9          1           0       -3.867621    2.979497   -0.305891
     10          8           0       -0.883639   -0.237809   -0.947778
     11          6           0        0.390469   -0.097539   -0.544840
     12          6           0        0.955757    1.147998   -0.297064
     13          6           0        1.208154   -1.213705   -0.399404
     14          6           0        2.278859    1.285169    0.080533
     15          6           0        2.537244   -1.091831   -0.032893
     16          6           0        3.074307    0.160076    0.213131
     17          9           0        0.216257    2.247073   -0.446395
     18          9           0        0.713466   -2.425135   -0.620851
     19          9           0        2.789675    2.488509    0.309892
     20          9           0        3.298032   -2.172517    0.091329
     21          9           0        4.345719    0.281463    0.570218
     22          6           0       -2.861424   -1.170304   -0.057701
     23          1           0       -3.088986   -1.426524   -1.096013
     24          9           0       -2.276732   -2.233960    0.534779
     25          9           0       -4.027203   -0.932639    0.599325
 ---------------------------------------------------------------------

 SCF Done:  E(RPBE1PBE) =  -1249.86992512     A.U. after    1 cycles

 The electronic state is 1-A.
 Alpha  occ. eigenvalues --  -24.81915 -24.81791 -24.81676 -24.81611 -24.81169
 Alpha  occ. eigenvalues --  -24.79285 -24.79116 -19.24805 -19.16244 -14.48148
 Alpha  occ. eigenvalues --  -10.38729 -10.37493 -10.34361 -10.34200 -10.34130
 Alpha  occ. eigenvalues --  -10.33902 -10.33787 -10.31541 -10.26652  -1.31040
 Alpha  occ. eigenvalues --   -1.30423  -1.30341  -1.29783  -1.29010  -1.28603
 Alpha  occ. eigenvalues --   -1.24343  -1.12687  -1.04623  -0.99735  -0.92914
 Alpha  occ. eigenvalues --   -0.81442  -0.81093  -0.77162  -0.73423  -0.69915
 Alpha  occ. eigenvalues --   -0.69603  -0.65194  -0.62990  -0.62789  -0.60729
 Alpha  occ. eigenvalues --   -0.60053  -0.58843  -0.58592  -0.57678  -0.56995
 Alpha  occ. eigenvalues --   -0.56006  -0.55526  -0.54875  -0.54168  -0.52849
 Alpha  occ. eigenvalues --   -0.52078  -0.50195  -0.50019  -0.49491  -0.48779
 Alpha  occ. eigenvalues --   -0.47621  -0.47081  -0.45871  -0.45663  -0.44830
 Alpha  occ. eigenvalues --   -0.44602  -0.43511  -0.42838  -0.41848  -0.41616
 Alpha  occ. eigenvalues --   -0.41142  -0.38789  -0.37296  -0.34121  -0.30226
 Alpha  occ. eigenvalues --   -0.28295  -0.27401  -0.26440
 Alpha virt. eigenvalues --   -0.02131  -0.01423  -0.01180   0.03488   0.06813
 Alpha virt. eigenvalues --    0.07456   0.07597   0.08655   0.10185   0.10257
 Alpha virt. eigenvalues --    0.12070   0.12656   0.13428   0.13610   0.14887

 Mulliken charges:
               1
     1  H    0.279465
     2  O   -0.500603
     3  C    0.202368
     4  N   -0.145020
     5  H    0.292138
     6  C   -0.314452
     7  H    0.168659
     8  H    0.167145
     9  H    0.172803
    10  O   -0.334969
    11  C    0.128513
    12  C    0.226439
    13  C    0.139844
    14  C    0.136117
    15  C    0.144844
    16  C    0.165503
    17  F   -0.196584
    18  F   -0.173831
    19  F   -0.172225
    20  F   -0.172957
    21  F   -0.170902
    22  C    0.234517
    23  H    0.117545
    24  F   -0.193365
    25  F   -0.200992
 Sum of Mulliken charges =  -0.00000

 Dipole moment (field-independent basis, Debye):
    X=             -5.8863    Y=              5.0924    Z=             -6.2143  Tot=              9.9598
 Quadrupole moment (field-independent basis, Debye-Ang):
   XX=            -90.9037   YY=           -103.6794   ZZ=           -103.1514
   XY=            -14.7798   XZ=             13.4441   YZ=             -2.6308

  Exact polarizability: 192.879  -7.115 166.894  13.293   3.117 113.975
 Approx polarizability: 205.885  -5.101 195.719  20.047   5.149 135.020

                      1                      2                      3
                      A                      A                      A
 Frequencies --     30.8094                33.3282                50.5491
 Red. masses --      8.0457                 8.8064                 4.9973
 Frc consts  --      0.0045                 0.0058                 0.0075
 IR Inten    --      6.1234                 4.9673                 2.0239

                      4                      5                      6
                      A                      A                      A
 Frequencies --     69.2789                93.7041               138.1021
 Red. masses --      7.8472                 3.0138                12.9609
 Frc consts  --      0.0222                 0.0156                 0.1456
 IR Inten    --      1.7141                 1.6380                 0.4473

                      7                      8                      9
                      A                      A                      A
 Frequencies --    144.7428               154.3736               181.7650
 Red. masses --     11.1461                 9.0221                 4.1248
 Frc consts  --      0.1376                 0.1267                 0.0803
 IR Inten    --      0.4017                 9.6810                 8.2479

                     10                     11                     12
                      A                      A                      A
 Frequencies --    186.5979               205.8886               234.5669
 Red. masses --      7.3519                 1.4512                 8.9880
 Frc consts  --      0.1508                 0.0362                 0.2914
 IR Inten    --      5.2643                 4.4312                 1.3132

                     13                     14                     15
                      A                      A                      A
 Frequencies --    255.2861               275.0627               278.8301
 Red. masses --      6.5624                13.6322                10.3107
 Frc consts  --      0.2520                 0.6077                 0.4723
 IR Inten    --     13.3385                 1.5839                 3.2730

                     16                     17                     18
                      A                      A                      A
 Frequencies --    284.1706               300.6876               312.6556
 Red. masses --      8.9095                13.1261                15.4855
 Frc consts  --      0.4239                 0.6992                 0.8919
 IR Inten    --      2.9182                17.1279                 3.4749

                     19                     20                     21
                      A                      A                      A
 Frequencies --    346.2620               350.5574               369.0278
 Red. masses --      5.9596                15.5595                 5.8296
 Frc consts  --      0.4210                 1.1266                 0.4677
 IR Inten    --     41.3068                 3.4540                23.1908

                     22                     23                     24
                      A                      A                      A
 Frequencies --    383.4699               391.6715               432.4225
 Red. masses --     12.5511                12.7398                 6.1098
 Frc consts  --      1.0874                 1.1515                 0.6731
 IR Inten    --      2.6880                 3.3985                87.5465

                     25                     26                     27
                      A                      A                      A
 Frequencies --    453.4110               488.0415               560.2139
 Red. masses --     13.8637                11.8396                 8.2377
 Frc consts  --      1.6792                 1.6615                 1.5232
 IR Inten    --      5.1632                19.3440                35.0409

                     28                     29                     30
                      A                      A                      A
 Frequencies --    584.2994               591.2622               650.7423
 Red. masses --     11.3949                11.4752                13.7398
 Frc consts  --      2.2921                 2.3636                 3.4281
 IR Inten    --     23.5512                40.2684                 8.0603

                     31                     32                     33
                      A                      A                      A
 Frequencies --    670.3202               694.1907               733.9472
 Red. masses --     12.1948                 9.4420                 2.6641
 Frc consts  --      3.2284                 2.6809                 0.8455
 IR Inten    --      0.3240                53.8840               188.1150

                     34                     35                     36
                      A                      A                      A
 Frequencies --    765.6644               803.3774               825.0861
 Red. masses --      4.9466                 8.9514                 5.1407
 Frc consts  --      1.7086                 3.4039                 2.0619
 IR Inten    --     30.8342                33.7050               235.0864

                     37                     38                     39
                      A                      A                      A
 Frequencies --    854.7637               961.4556              1016.6620
 Red. masses --      4.7584                 2.0528                13.9942
 Frc consts  --      2.0483                 1.1180                 8.5222
 IR Inten    --    230.4017                88.6053               451.8482

                     40                     41                     42
                      A                      A                      A
 Frequencies --   1030.4942              1046.4949              1094.5080
 Red. masses --     11.3807                 2.8788                 4.7704
 Frc consts  --      7.1205                 1.8575                 3.3670
 IR Inten    --    490.8504                63.2767               290.5401

                     43                     44                     45
                      A                      A                      A
 Frequencies --   1108.9429              1142.5046              1171.2105
 Red. masses --      1.9112                 1.9903                12.6841
 Frc consts  --      1.3847                 1.5307                10.2513
 IR Inten    --    207.2187                69.1791                 2.9055

                     46                     47                     48
                      A                      A                      A
 Frequencies --   1174.8887              1196.2659              1322.4903
 Red. masses --      3.5662                 5.8817                 1.3237
 Frc consts  --      2.9004                 4.9592                 1.3640
 IR Inten    --     20.6139                13.9162               101.8358

                     49                     50                     51
                      A                      A                      A
 Frequencies --   1333.1162              1339.8742              1346.9541
 Red. masses --     10.9144                 9.6657                 1.2631
 Frc consts  --     11.4284                10.2238                 1.3502
 IR Inten    --      1.2493                12.6992                43.0808

                     52                     53                     54
                      A                      A                      A
 Frequencies --   1374.0266              1409.7901              1440.1248
 Red. masses --      1.1956                 1.4700                 1.1776
 Frc consts  --      1.3300                 1.7214                 1.4389
 IR Inten    --      1.6793                38.4793                14.4555

                     55                     56                     57
                      A                      A                      A
 Frequencies --   1487.0362              1492.0307              1518.3832
 Red. masses --      1.0445                 1.0391                11.5936
 Frc consts  --      1.3608                 1.3629                15.7482
 IR Inten    --     13.7765                32.6257                49.8208

                     58                     59                     60
                      A                      A                      A
 Frequencies --   1554.7523              1561.0024              1618.8930
 Red. masses --     11.9362                11.9963                 5.2051
 Frc consts  --     16.9997                17.2228                 8.0375
 IR Inten    --    559.3710               487.3093               334.9764

                     61                     62                     63
                      A                      A                      A
 Frequencies --   1631.0273              1687.1143              1705.3997
 Red. masses --      1.1939                11.9368                11.9380
 Frc consts  --      1.8714                20.0183                20.4566
 IR Inten    --    177.3158                 5.4743                 3.0065

                     64                     65                     66
                      A                      A                      A
 Frequencies --   3098.2545              3101.0396              3187.8261
 Red. masses --      1.0327                 1.0876                 1.1061
 Frc consts  --      5.8406                 6.1620                 6.6229
 IR Inten    --     17.9718                34.3910                 1.4100

                     67                     68                     69
                      A                      A                      A
 Frequencies --   3208.4999              3480.8028              3545.0831
 Red. masses --      1.1066                 1.0524                 1.0946
 Frc consts  --      6.7121                 7.5124                 8.1048
 IR Inten    --      2.1410                59.1340               111.9031

 - Thermochemistry -
 -------------------
 Temperature   298.150 Kelvin.  Pressure   1.00000 Atm.
 Atom     1 has atomic number  1 and mass   1.00783

 Molecular mass:   293.02868 amu.
 Principal axes and moments of inertia in atomic units:
                           1         2         3
     Eigenvalues --  2854.810767221.746549433.66298
           X            0.99955  -0.02985   0.00370
           Y            0.02985   0.99955   0.00104
           Z           -0.00373  -0.00093   0.99999
 This molecule is an asymmetric top.
 Rotational symmetry number  1.
 Warning -- assumption of classical behavior for rotation
           may cause significant error
 Rotational temperatures (Kelvin)      0.03034     0.01199     0.00918
 Rotational constants (GHZ):           0.63218     0.24990     0.19131
 Zero-point vibrational energy     410116.2 (Joules/Mol)
                                   98.02013 (Kcal/Mol)
 Warning -- explicit consideration of  29 degrees of freedom as
           vibrations may cause significant error
 Vibrational temperatures:     44.33    47.95    72.73    99.68   134.82
          (Kelvin)            198.70   208.25   222.11   261.52   268.47
                              296.23   337.49   367.30   395.75   401.17
                              408.86   432.62   449.84   498.19   504.37
                              530.95   551.73   563.53   622.16   652.36
                              702.18   806.02   840.68   850.69   936.27
                              964.44   998.79  1055.99  1101.62  1155.88
                             1187.11  1229.81  1383.32  1462.75  1482.65
                             1505.67  1574.75  1595.52  1643.81  1685.11
                             1690.40  1721.16  1902.77  1918.06  1927.78
                             1937.97  1976.92  2028.37  2072.02  2139.51
                             2146.70  2184.61  2236.94  2245.93  2329.23
                             2346.68  2427.38  2453.69  4457.70  4461.70
                             4586.57  4616.32  5008.10  5100.58

 Zero-point correction=                           0.156205 (Hartree/Particle)
 Thermal correction to Energy=                    0.174121
 Thermal correction to Enthalpy=                  0.175066
 Thermal correction to Gibbs Free Energy=         0.109271
 Sum of electronic and zero-point Energies=          -1249.713720
 Sum of electronic and thermal Energies=             -1249.695804
 Sum of electronic and thermal Enthalpies=           -1249.694859
 Sum of electronic and thermal Free Energies=        -1249.760654

                     E (Thermal)             CV                S
                      KCal/Mol        Cal/Mol-Kelvin    Cal/Mol-Kelvin
 Total                  109.263             64.266            138.477
 Electronic               0.000              0.000              0.000
 Translational            0.889              2.981             42.923
 Rotational               0.889              2.981             33.630
 Vibrational            107.485             58.305             61.924
 Vibration     1          0.594              1.984              5.777
 Vibration     2          0.594              1.983              5.621
 Vibration     3          0.595              1.977              4.796
 Vibration     4          0.598              1.969              4.174
 Vibration     5          0.603              1.954              3.581
 Vibration     6          0.614              1.915              2.830
 Vibration     7          0.616              1.908              2.740
 Vibration     8          0.620              1.898              2.618
 Vibration     9          0.630              1.865              2.310
 Vibration    10          0.632              1.858              2.261
 Vibration    11          0.640              1.831              2.080
 Vibration    12          0.654              1.788              1.844
 Vibration    13          0.666              1.754              1.694
 Vibration    14          0.677              1.719              1.564
 Vibration    15          0.679              1.713              1.541
 Vibration    16          0.683              1.703              1.508
 Vibration    17          0.693              1.672              1.413
 Vibration    18          0.701              1.650              1.348
 Vibration    19          0.724              1.583              1.183
 Vibration    20          0.727              1.574              1.164
 Vibration    21          0.741              1.536              1.084
 Vibration    22          0.753              1.505              1.025
 Vibration    23          0.759              1.488              0.994
 Vibration    24          0.793              1.400              0.851
 Vibration    25          0.812              1.353              0.786
 Vibration    26          0.844              1.277              0.689
 Vibration    27          0.916              1.117              0.523
 Vibration    28          0.941              1.065              0.477
 Vibration    29          0.949              1.050              0.465

                           ! Non-Optimized Parameters !
 Normal termination of Gaussian 16 at Thu Feb  6 14:27:55 2025.
