 Gaussian 16, Revision B.01,
 Gaussian 16:  ES64L-G16RevB.01 20-Dec-2017

 ----------------------------------------------------------------------
 #P PBE1PBE/def2TZVP opt freq EmpiricalDispersion=GD3 Int=(grid=99590)
 scrf=(iefpcm, solvent=water)
 ----------------------------------------------------------------------

 --------------------------
 N-Methylacetamide_product2
 --------------------------
 Symbolic Z-matrix:
 Charge =  0 Multiplicity = 1

 SCF Done:  E(RPBE1PBE) =  -248.327671457     A.U. after   11 cycles
 SCF Done:  E(RPBE1PBE) =  -248.343170387     A.U. after   11 cycles
 SCF Done:  E(RPBE1PBE) =  -248.345832880     A.U. after   10 cycles
 SCF Done:  E(RPBE1PBE) =  -248.346144785     A.U. after   10 cycles
 SCF Done:  E(RPBE1PBE) =  -248.349084646     A.U. after   10 cycles
 SCF Done:  E(RPBE1PBE) =  -248.349449613     A.U. after   10 cycles
 SCF Done:  E(RPBE1PBE) =  -248.349610434     A.U. after    9 cycles
 SCF Done:  E(RPBE1PBE) =  -248.349680879     A.U. after    9 cycles
 SCF Done:  E(RPBE1PBE) =  -248.349716186     A.U. after    9 cycles
 SCF Done:  E(RPBE1PBE) =  -248.349773939     A.U. after    9 cycles
 SCF Done:  E(RPBE1PBE) =  -248.349791048     A.U. after    8 cycles
 SCF Done:  E(RPBE1PBE) =  -248.349802177     A.U. after    8 cycles
 SCF Done:  E(RPBE1PBE) =  -248.349809994     A.U. after    8 cycles
 SCF Done:  E(RPBE1PBE) =  -248.349823386     A.U. after    9 cycles
 SCF Done:  E(RPBE1PBE) =  -248.349837796     A.U. after    9 cycles
 SCF Done:  E(RPBE1PBE) =  -248.349866590     A.U. after    9 cycles
 SCF Done:  E(RPBE1PBE) =  -248.349890483     A.U. after    9 cycles
 SCF Done:  E(RPBE1PBE) =  -248.349888938     A.U. after    8 cycles
 SCF Done:  E(RPBE1PBE) =  -248.349891520     A.U. after    8 cycles
 Optimization completed.
    -- Stationary point found.
 Normal termination of Gaussian 16 at Tue Jul  2 17:48:51 2024.

 ----------------------------------------------------------------------
 #P Geom=AllCheck Guess=TCheck SCRF=Check GenChk RPBE1PBE/def2TZVP Freq
 ----------------------------------------------------------------------

 Structure from the checkpoint file:  "/scratch/Gau-317605.chk"
 --------------------------
 N-Methylacetamide_product2
 --------------------------
 Charge =  0 Multiplicity = 1

                         Standard orientation:
 ---------------------------------------------------------------------
 Center     Atomic      Atomic             Coordinates (Angstroms)
 Number     Number       Type             X           Y           Z
 ---------------------------------------------------------------------
      1          6           0       -0.476401    0.153869   -0.001304
      2          8           0       -0.383984    1.378094   -0.000244
      3          7           0        0.606029   -0.640071   -0.003247
      4          1           0        0.480379   -1.636798    0.002232
      5          6           0       -1.813074   -0.537932    0.000962
      6          1           0       -1.741172   -1.625150   -0.025105
      7          1           0       -2.359295   -0.238244    0.897120
      8          1           0       -2.384610   -0.196418   -0.863537
      9          6           0        1.945756   -0.105612    0.001590
     10          1           0        2.129321    0.488529    0.900048
     11          1           0        2.653544   -0.931839   -0.025684
     12          1           0        2.113815    0.533707   -0.867886
 ---------------------------------------------------------------------

 SCF Done:  E(RPBE1PBE) =  -248.349891520     A.U. after    1 cycles

 The electronic state is 1-A.
 Alpha  occ. eigenvalues --  -19.16935 -14.41107 -10.32138 -10.24880 -10.22136
 Alpha  occ. eigenvalues --   -1.06781  -0.95251  -0.77662  -0.70899  -0.60595
 Alpha  occ. eigenvalues --   -0.52266  -0.48911  -0.48024  -0.43540  -0.42459
 Alpha  occ. eigenvalues --   -0.41055  -0.40176  -0.36843  -0.27622  -0.27512
 Alpha virt. eigenvalues --    0.02738   0.04599   0.07582   0.08423   0.12719
 Alpha virt. eigenvalues --    0.13341   0.13529   0.14887   0.15294   0.17476
 Alpha virt. eigenvalues --    0.20938   0.21159   0.22393   0.23801   0.24667

 Mulliken charges:
               1
     1  C    0.307130
     2  O   -0.488707
     3  N   -0.280481
     4  H    0.262268
     5  C   -0.384240
     6  H    0.134000
     7  H    0.148647
     8  H    0.148032
     9  C   -0.278291
    10  H    0.139791
    11  H    0.151783
    12  H    0.140070
 Sum of Mulliken charges =   0.00000

 Dipole moment (field-independent basis, Debye):
    X=              0.9945    Y=             -5.1462    Z=              0.0142  Tot=              5.2414
 Quadrupole moment (field-independent basis, Debye-Ang):
   XX=            -25.9027   YY=            -33.4124   ZZ=            -30.9694
   XY=              0.8770   XZ=             -0.0092   YZ=             -0.0210

  Exact polarizability:  69.189  -2.563  62.565   0.038  -0.003  46.588
 Approx polarizability:  66.123  -4.565  71.383   0.017   0.001  50.465

                      1                      2                      3
                      A                      A                      A
 Frequencies --     49.7995                70.0152               179.0543
 Red. masses --      1.1162                 1.0351                 2.8143
 Frc consts  --      0.0016                 0.0030                 0.0532
 IR Inten    --      7.7356                 1.0152                 9.5309

                      4                      5                      6
                      A                      A                      A
 Frequencies --    268.5333               433.3272               433.8881
 Red. masses --      3.1972                 1.3779                 2.1746
 Frc consts  --      0.1358                 0.1524                 0.2412
 IR Inten    --     10.4970                87.2229                38.5032

                      7                      8                      9
                      A                      A                      A
 Frequencies --    634.5589               642.5181               893.4691
 Red. masses --      3.7906                 2.3306                 2.5535
 Frc consts  --      0.8993                 0.5669                 1.2010
 IR Inten    --      8.6720                 0.3429                 7.3354

                     10                     11                     12
                      A                      A                      A
 Frequencies --   1007.7032              1050.8527              1122.1602
 Red. masses --      1.6470                 1.7999                 2.9437
 Frc consts  --      0.9854                 1.1711                 2.1840
 IR Inten    --     10.6023                13.5721                 4.6032

                     13                     14                     15
                      A                      A                      A
 Frequencies --   1147.9542              1191.1922              1306.5205
 Red. masses --      1.2998                 1.9010                 1.6440
 Frc consts  --      1.0092                 1.5893                 1.6534
 IR Inten    --      0.1977                 1.1718                66.7441

                     16                     17                     18
                      A                      A                      A
 Frequencies --   1386.3685              1444.0219              1452.9669
 Red. masses --      1.2549                 1.2016                 1.0441
 Frc consts  --      1.4211                 1.4763                 1.2987
 IR Inten    --     49.6296                18.7125                11.9158

                     19                     20                     21
                      A                      A                      A
 Frequencies --   1463.4272              1468.5479              1492.3980
 Red. masses --      1.0376                 1.0964                 1.0722
 Frc consts  --      1.3093                 1.3931                 1.4070
 IR Inten    --     16.3759                34.5421                13.8616

                     22                     23                     24
                      A                      A                      A
 Frequencies --   1570.0222              1716.8978              3053.2880
 Red. masses --      2.3632                 8.1070                 1.0358
 Frc consts  --      3.4322                14.0799                 5.6891
 IR Inten    --    368.2207               515.0273                45.4782

                     25                     26                     27
                      A                      A                      A
 Frequencies --   3066.5820              3112.7277              3145.1662
 Red. masses --      1.0357                 1.1040                 1.1008
 Frc consts  --      5.7386                 6.3024                 6.4156
 IR Inten    --      5.2261                32.7663                 5.7859

                     28                     29                     30
                      A                      A                      A
 Frequencies --   3156.7948              3167.0188              3674.9231
 Red. masses --      1.1046                 1.1017                 1.0790
 Frc consts  --      6.4854                 6.5105                 8.5852
 IR Inten    --     20.4127                15.2169                77.1248

 - Thermochemistry -
 -------------------
 Temperature   298.150 Kelvin.  Pressure   1.00000 Atm.
 Atom     1 has atomic number  6 and mass  12.00000

 Molecular mass:    73.05276 amu.
 Principal axes and moments of inertia in atomic units:
                           1         2         3
     Eigenvalues --   177.61693 461.10380 616.29653
           X            0.99942   0.03407   0.00001
           Y           -0.03407   0.99942  -0.00017
           Z           -0.00001   0.00017   1.00000
 This molecule is an asymmetric top.
 Rotational symmetry number  1.
 Rotational temperatures (Kelvin)      0.48764     0.18784     0.14054
 Rotational constants (GHZ):          10.16086     3.91396     2.92837
 Zero-point vibrational energy     267979.6 (Joules/Mol)
                                   64.04867 (Kcal/Mol)
 Warning -- explicit consideration of   6 degrees of freedom as
           vibrations may cause significant error
 Vibrational temperatures:     71.65   100.74   257.62   386.36   623.46
          (Kelvin)            624.27   912.99   924.44  1285.50  1449.86
                             1511.94  1614.54  1651.65  1713.86  1879.79
                             1994.68  2077.63  2090.50  2105.55  2112.91
                             2147.23  2258.91  2470.23  4393.00  4412.13
                             4478.52  4525.19  4541.92  4556.63  5287.39

 Zero-point correction=                           0.102068 (Hartree/Particle)
 Thermal correction to Energy=                    0.108656
 Thermal correction to Enthalpy=                  0.109600
 Thermal correction to Gibbs Free Energy=         0.071500
 Sum of electronic and zero-point Energies=           -248.247823
 Sum of electronic and thermal Energies=              -248.241235
 Sum of electronic and thermal Enthalpies=            -248.240291
 Sum of electronic and thermal Free Energies=         -248.278392

                     E (Thermal)             CV                S
                      KCal/Mol        Cal/Mol-Kelvin    Cal/Mol-Kelvin
 Total                   68.183             20.894             80.189
 Electronic               0.000              0.000              0.000
 Translational            0.889              2.981             38.782
 Rotational               0.889              2.981             25.426
 Vibrational             66.405             14.932             15.981
 Vibration     1          0.595              1.978              4.825
 Vibration     2          0.598              1.968              4.153
 Vibration     3          0.629              1.868              2.338
 Vibration     4          0.673              1.731              1.606
 Vibration     5          0.794              1.398              0.848
 Vibration     6          0.795              1.396              0.846

                           ! Non-Optimized Parameters !
 Normal termination of Gaussian 16 at Tue Jul  2 17:49:47 2024.
