 Gaussian 16, Revision B.01,
 Gaussian 16:  ES64L-G16RevB.01 20-Dec-2017

 ----------------------------------------------------------------------
 #P PBE1PBE/def2TZVP opt freq EmpiricalDispersion=GD3 Int=(grid=99590)
 scrf=(iefpcm, solvent=water)
 ----------------------------------------------------------------------

 ------------------------------
 x=chf2 methylacetamide product
 ------------------------------
 Symbolic Z-matrix:
 Charge =  0 Multiplicity = 1

 SCF Done:  E(RPBE1PBE) =  -446.705392480     A.U. after   12 cycles
 SCF Done:  E(RPBE1PBE) =  -446.722753227     A.U. after   11 cycles
 SCF Done:  E(RPBE1PBE) =  -446.726504265     A.U. after   11 cycles
 SCF Done:  E(RPBE1PBE) =  -446.728325773     A.U. after   10 cycles
 SCF Done:  E(RPBE1PBE) =  -446.730963203     A.U. after   11 cycles
 SCF Done:  E(RPBE1PBE) =  -446.731689961     A.U. after   10 cycles
 SCF Done:  E(RPBE1PBE) =  -446.731873221     A.U. after   10 cycles
 SCF Done:  E(RPBE1PBE) =  -446.731949046     A.U. after   10 cycles
 SCF Done:  E(RPBE1PBE) =  -446.731969928     A.U. after    8 cycles
 SCF Done:  E(RPBE1PBE) =  -446.731973513     A.U. after    8 cycles
 SCF Done:  E(RPBE1PBE) =  -446.731973770     A.U. after    7 cycles
 Optimization completed.
    -- Stationary point found.
 Normal termination of Gaussian 16 at Fri Feb 14 12:16:03 2025.

 ----------------------------------------------------------------------
 #P Geom=AllCheck Guess=TCheck SCRF=Check GenChk RPBE1PBE/def2TZVP Freq
 ----------------------------------------------------------------------

 Structure from the checkpoint file:  "/scratch/Gau-51731.chk"
 ------------------------------
 x=chf2 methylacetamide product
 ------------------------------
 Charge =  0 Multiplicity = 1

                         Standard orientation:
 ---------------------------------------------------------------------
 Center     Atomic      Atomic             Coordinates (Angstroms)
 Number     Number       Type             X           Y           Z
 ---------------------------------------------------------------------
      1          6           0        0.263238    0.406052   -0.181652
      2          8           0        0.541772    1.587822   -0.308665
      3          7           0        1.124302   -0.578852    0.059991
      4          1           0        0.762842   -1.510906    0.179324
      5          6           0       -1.204530   -0.007119   -0.327111
      6          6           0        2.540542   -0.347623    0.221144
      7          1           0        2.789499   -0.109637    1.258415
      8          1           0        3.085707   -1.240740   -0.079085
      9          1           0        2.841218    0.488099   -0.409299
     10          9           0       -1.918304    0.582314    0.663036
     11          1           0       -1.605711    0.315124   -1.291118
     12          9           0       -1.378735   -1.349026   -0.205607
 ---------------------------------------------------------------------

 SCF Done:  E(RPBE1PBE) =  -446.731973770     A.U. after    1 cycles

 The electronic state is 1-A.
 Alpha  occ. eigenvalues --  -24.79988 -24.79506 -19.19078 -14.42981 -10.39598
 Alpha  occ. eigenvalues --  -10.33944 -10.25658  -1.30816  -1.24854  -1.08888
 Alpha  occ. eigenvalues --   -0.97359  -0.78332  -0.72625  -0.62374  -0.60728
 Alpha  occ. eigenvalues --   -0.58787  -0.58260  -0.50016  -0.48392  -0.48008
 Alpha  occ. eigenvalues --   -0.46084  -0.44800  -0.43958  -0.41485  -0.40564
 Alpha  occ. eigenvalues --   -0.38923  -0.29516  -0.28938
 Alpha virt. eigenvalues --   -0.00391   0.05566   0.07653   0.09081   0.11272
 Alpha virt. eigenvalues --    0.12511   0.13346   0.14807   0.15717   0.17554
 Alpha virt. eigenvalues --    0.20487   0.23706   0.23886   0.25575   0.26237

 Mulliken charges:
               1
     1  C    0.241317
     2  O   -0.448436
     3  N   -0.241754
     4  H    0.270253
     5  C    0.284118
     6  C   -0.287302
     7  H    0.150721
     8  H    0.159023
     9  H    0.152686
    10  F   -0.194150
    11  H    0.119832
    12  F   -0.206308
 Sum of Mulliken charges =   0.00000

 Dipole moment (field-independent basis, Debye):
    X=              2.1441    Y=             -4.1312    Z=             -0.6393  Tot=              4.6982
 Quadrupole moment (field-independent basis, Debye-Ang):
   XX=            -35.2866   YY=            -44.7167   ZZ=            -38.3670
   XY=             -4.7105   XZ=              3.7098   YZ=             -0.2293

  Exact polarizability:  65.216  -5.177  64.556   3.320  -3.025  47.176
 Approx polarizability:  63.200  -5.161  76.685   2.093  -3.552  51.765

                      1                      2                      3
                      A                      A                      A
 Frequencies --     41.2854                50.8351               155.8628
 Red. masses --      5.7850                 1.1321                 3.5970
 Frc consts  --      0.0058                 0.0017                 0.0515
 IR Inten    --      9.7370                 1.6073                 0.3340

                      4                      5                      6
                      A                      A                      A
 Frequencies --    208.0734               307.7939               335.1543
 Red. masses --      4.6746                 6.9107                 5.4358
 Frc consts  --      0.1192                 0.3857                 0.3598
 IR Inten    --      4.9772                19.4343                33.9874

                      7                      8                      9
                      A                      A                      A
 Frequencies --    450.2687               535.2265               577.2317
 Red. masses --      9.5662                 1.3643                 9.4080
 Frc consts  --      1.1427                 0.2303                 1.8469
 IR Inten    --     19.7322               126.4504                 4.5241

                     10                     11                     12
                      A                      A                      A
 Frequencies --    630.8051               814.1233               914.7006
 Red. masses --      2.8603                 5.4346                 3.6645
 Frc consts  --      0.6706                 2.1223                 1.8064
 IR Inten    --     19.2862                29.3316                22.5853

                     13                     14                     15
                      A                      A                      A
 Frequencies --   1080.8803              1105.7235              1140.6840
 Red. masses --      6.4427                 5.4129                 1.6584
 Frc consts  --      4.4348                 3.8992                 1.2714
 IR Inten    --    177.5823               158.1357                67.4245

                     16                     17                     18
                      A                      A                      A
 Frequencies --   1150.6251              1184.2564              1309.5007
 Red. masses --      2.5725                 1.7495                 1.5797
 Frc consts  --      2.0067                 1.4456                 1.5960
 IR Inten    --     85.4757                20.9504                20.4953

                     19                     20                     21
                      A                      A                      A
 Frequencies --   1363.0627              1388.0042              1440.5964
 Red. masses --      1.1721                 1.5087                 1.1754
 Frc consts  --      1.2830                 1.7125                 1.4373
 IR Inten    --     28.1312                51.1327                25.7629

                     22                     23                     24
                      A                      A                      A
 Frequencies --   1468.7534              1489.2752              1599.2988
 Red. masses --      1.0564                 1.0643                 2.4559
 Frc consts  --      1.3427                 1.3908                 3.7010
 IR Inten    --     18.0929                 6.1199               204.3631

                     25                     26                     27
                      A                      A                      A
 Frequencies --   1761.9822              3059.6365              3112.5224
 Red. masses --     10.0438                 1.0389                 1.0869
 Frc consts  --     18.3717                 5.7303                 6.2036
 IR Inten    --    586.2831                37.8370                22.1006

                     28                     29                     30
                      A                      A                      A
 Frequencies --   3136.3743              3172.8855              3650.9619
 Red. masses --      1.0975                 1.1054                 1.0780
 Frc consts  --      6.3611                 6.5565                 8.4663
 IR Inten    --     17.6043                 7.2411               118.3208

 - Thermochemistry -
 -------------------
 Temperature   298.150 Kelvin.  Pressure   1.00000 Atm.
 Atom     1 has atomic number  6 and mass  12.00000

 Molecular mass:   109.03392 amu.
 Principal axes and moments of inertia in atomic units:
                           1         2         3
     Eigenvalues --   392.25647 958.305221233.97864
           X            0.99922  -0.03233   0.02249
           Y            0.03282   0.99922  -0.02176
           Z           -0.02177   0.02248   0.99951
 This molecule is an asymmetric top.
 Rotational symmetry number  1.
 Rotational temperatures (Kelvin)      0.22081     0.09038     0.07019
 Rotational constants (GHZ):           4.60092     1.88326     1.46254
 Zero-point vibrational energy     231096.9 (Joules/Mol)
                                   55.23348 (Kcal/Mol)
 Warning -- explicit consideration of   9 degrees of freedom as
           vibrations may cause significant error
 Vibrational temperatures:     59.40    73.14   224.25   299.37   442.85
          (Kelvin)            482.21   647.84   770.07   830.51   907.59
                             1171.34  1316.05  1555.15  1590.89  1641.19
                             1655.49  1703.88  1884.08  1961.14  1997.03
                             2072.70  2113.21  2142.73  2301.03  2535.10
                             4402.13  4478.23  4512.54  4565.07  5252.92

 Zero-point correction=                           0.088020 (Hartree/Particle)
 Thermal correction to Energy=                    0.095574
 Thermal correction to Enthalpy=                  0.096518
 Thermal correction to Gibbs Free Energy=         0.054783
 Sum of electronic and zero-point Energies=           -446.643954
 Sum of electronic and thermal Energies=              -446.636400
 Sum of electronic and thermal Enthalpies=            -446.635456
 Sum of electronic and thermal Free Energies=         -446.677191

                     E (Thermal)             CV                S
                      KCal/Mol        Cal/Mol-Kelvin    Cal/Mol-Kelvin
 Total                   59.974             24.579             87.839
 Electronic               0.000              0.000              0.000
 Translational            0.889              2.981             39.976
 Rotational               0.889              2.981             27.630
 Vibrational             58.196             18.618             20.233
 Vibration     1          0.594              1.981              5.196
 Vibration     2          0.595              1.977              4.785
 Vibration     3          0.620              1.896              2.599
 Vibration     4          0.641              1.828              2.061
 Vibration     5          0.698              1.659              1.374
 Vibration     6          0.716              1.605              1.235
 Vibration     7          0.809              1.360              0.795
 Vibration     8          0.890              1.172              0.576
 Vibration     9          0.934              1.081              0.491

                           ! Non-Optimized Parameters !
 Normal termination of Gaussian 16 at Fri Feb 14 12:17:39 2025.
