 Gaussian 16, Revision B.01,
 Gaussian 16:  ES64L-G16RevB.01 20-Dec-2017

 ----------------------------------------------------------------------
 #P PBE1PBE/def2TZVP opt=(calcfc, ts, noeigentest) freq EmpiricalDisper
 sion=GD3 Int=(grid=99590) scrf=(iefpcm, solvent=water)
 ----------------------------------------------------------------------

 -------
 PFP-CF3
 -------
 Symbolic Z-matrix:
 Charge =  0 Multiplicity = 1

 SCF Done:  E(RPBE1PBE) =  -1289.17221545     A.U. after   12 cycles
 SCF Done:  E(RPBE1PBE) =  -1289.17756122     A.U. after   12 cycles
 SCF Done:  E(RPBE1PBE) =  -1289.17683780     A.U. after   12 cycles
 SCF Done:  E(RPBE1PBE) =  -1289.17784347     A.U. after   10 cycles
 SCF Done:  E(RPBE1PBE) =  -1289.17785846     A.U. after   10 cycles
 SCF Done:  E(RPBE1PBE) =  -1289.17789866     A.U. after    9 cycles
 SCF Done:  E(RPBE1PBE) =  -1289.17790294     A.U. after    7 cycles
 SCF Done:  E(RPBE1PBE) =  -1289.17790653     A.U. after    8 cycles
 SCF Done:  E(RPBE1PBE) =  -1289.17790660     A.U. after    7 cycles
 SCF Done:  E(RPBE1PBE) =  -1289.17790655     A.U. after    6 cycles
 SCF Done:  E(RPBE1PBE) =  -1289.17790662     A.U. after    6 cycles
 Optimization completed.
    -- Stationary point found.
 Normal termination of Gaussian 16 at Tue Jul  9 02:58:07 2024.

 ----------------------------------------------------------------------
 #P Geom=AllCheck Guess=TCheck SCRF=Check GenChk RPBE1PBE/def2TZVP Freq
 ----------------------------------------------------------------------

 Structure from the checkpoint file:  "/scratch/Gau-980072.chk"
 -------
 PFP-CF3
 -------
 Charge =  0 Multiplicity = 1

                         Standard orientation:
 ---------------------------------------------------------------------
 Center     Atomic      Atomic             Coordinates (Angstroms)
 Number     Number       Type             X           Y           Z
 ---------------------------------------------------------------------
      1          1           0        2.940045   -1.727755    0.196504
      2          8           0        2.533261    0.811907    1.218166
      3          6           0        3.014225    0.577286    0.119667
      4          7           0        3.751256   -1.118276    0.174306
      5          1           0        4.253724   -1.321284   -0.683933
      6          6           0        4.581864   -1.308255    1.357844
      7          1           0        5.508107   -0.746402    1.246206
      8          1           0        4.033774   -0.925273    2.218574
      9          1           0        4.820926   -2.360736    1.515952
     10          6           0        4.133631    1.379289   -0.488281
     11          1           0        3.770538    2.399757   -0.623245
     12          1           0        4.980534    1.400791    0.196894
     13          1           0        4.446522    0.986679   -1.454936
     14          8           0        2.071830    0.275286   -0.992597
     15          6           0        0.783897    0.163143   -0.646981
     16          6           0        0.161628   -1.077314   -0.605802
     17          6           0        0.001666    1.279896   -0.364530
     18          6           0       -1.184496   -1.211774   -0.312099
     19          6           0       -1.337536    1.146371   -0.064798
     20          6           0       -1.963566   -0.096638   -0.031773
     21          9           0        0.879178   -2.172713   -0.849977
     22          9           0        0.542950    2.489430   -0.404830
     23          9           0       -1.686523   -2.439176   -0.302707
     24          9           0       -2.040080    2.245034    0.192115
     25          6           0       -3.430102   -0.146192    0.299383
     26          9           0       -3.925389   -1.380610    0.302898
     27          9           0       -4.148010    0.565812   -0.581874
     28          9           0       -3.668898    0.379970    1.509652
 ---------------------------------------------------------------------

 SCF Done:  E(RPBE1PBE) =  -1289.17790662     A.U. after    1 cycles

 The electronic state is 1-A.
 Alpha  occ. eigenvalues --  -24.81958 -24.81795 -24.81766 -24.81683 -24.81513
 Alpha  occ. eigenvalues --  -24.81511 -24.81250 -19.24667 -19.16428 -14.43724
 Alpha  occ. eigenvalues --  -10.49651 -10.36578 -10.35318 -10.34999 -10.33866
 Alpha  occ. eigenvalues --  -10.33795 -10.32246 -10.28565 -10.25433 -10.21982
 Alpha  occ. eigenvalues --   -1.36913  -1.30751  -1.30587  -1.29208  -1.29004
 Alpha  occ. eigenvalues --   -1.27706  -1.27316  -1.12641  -1.04257  -0.96409
 Alpha  occ. eigenvalues --   -0.93680  -0.84213  -0.81103  -0.78028  -0.74523
 Alpha  occ. eigenvalues --   -0.71562  -0.69898  -0.69435  -0.64137  -0.64044
 Alpha  occ. eigenvalues --   -0.63167  -0.63126  -0.61062  -0.59480  -0.57832
 Alpha  occ. eigenvalues --   -0.57546  -0.56181  -0.55138  -0.54548  -0.53244
 Alpha  occ. eigenvalues --   -0.53129  -0.51143  -0.50683  -0.50609  -0.49836
 Alpha  occ. eigenvalues --   -0.49591  -0.48626  -0.48096  -0.47446  -0.46435
 Alpha  occ. eigenvalues --   -0.46345  -0.46117  -0.44758  -0.44349  -0.43032
 Alpha  occ. eigenvalues --   -0.42629  -0.42338  -0.41924  -0.40700  -0.40163
 Alpha  occ. eigenvalues --   -0.38605  -0.38171  -0.33543  -0.30310  -0.28133
 Alpha  occ. eigenvalues --   -0.27572  -0.27264
 Alpha virt. eigenvalues --   -0.04636  -0.01581   0.00416   0.04122   0.05583
 Alpha virt. eigenvalues --    0.06643   0.08107   0.08640   0.10250   0.10853
 Alpha virt. eigenvalues --    0.11543   0.12102   0.12681   0.13131   0.13474

 Mulliken charges:
               1
     1  H    0.261227
     2  O   -0.466101
     3  C    0.286878
     4  N   -0.266386
     5  H    0.276243
     6  C   -0.317182
     7  H    0.157228
     8  H    0.155387
     9  H    0.161839
    10  C   -0.391995
    11  H    0.143899
    12  H    0.142357
    13  H    0.140026
    14  O   -0.304649
    15  C    0.138876
    16  C    0.148834
    17  C    0.169318
    18  C    0.172788
    19  C    0.173206
    20  C   -0.095065
    21  F   -0.185633
    22  F   -0.174139
    23  F   -0.164510
    24  F   -0.169231
    25  C    0.473394
    26  F   -0.149837
    27  F   -0.158429
    28  F   -0.158344
 Sum of Mulliken charges =  -0.00000

 Dipole moment (field-independent basis, Debye):
    X=              8.0242    Y=             -4.3287    Z=             -1.9160  Tot=              9.3165
 Quadrupole moment (field-independent basis, Debye-Ang):
   XX=            -85.8489   YY=           -112.4048   ZZ=           -112.5728
   XY=            -12.9465   XZ=             -1.6811   YZ=             -4.6095

  Exact polarizability: 218.673  -2.419 186.829  -9.059   2.868 129.322
 Approx polarizability: 224.775  -3.365 220.993 -16.488   8.815 149.869

 ******    1 imaginary frequencies (negative Signs) ******

                      1                      2                      3
                      A                      A                      A
 Frequencies --   -193.4537                30.2515                34.3052
 Red. masses --      5.1232                 5.1313                10.2731
 Frc consts  --      0.1130                 0.0028                 0.0071
 IR Inten    --    299.0501                 6.9291                 1.2546

                      4                      5                      6
                      A                      A                      A
 Frequencies --     42.2909                45.5828                60.8258
 Red. masses --      5.1578                 3.4678                 3.4306
 Frc consts  --      0.0054                 0.0042                 0.0075
 IR Inten    --      1.8303                 7.0083                 1.5439

                      7                      8                      9
                      A                      A                      A
 Frequencies --    100.3996               136.8561               155.8202
 Red. masses --      8.8172                17.9112                 6.7740
 Frc consts  --      0.0524                 0.1977                 0.0969
 IR Inten    --      3.0369                 0.1561                 5.2133

                     10                     11                     12
                      A                      A                      A
 Frequencies --    163.7583               176.1126               185.1505
 Red. masses --     11.0794                 2.6744                 1.5728
 Frc consts  --      0.1751                 0.0489                 0.0318
 IR Inten    --      1.2505                 1.0578                 0.2232

                     13                     14                     15
                      A                      A                      A
 Frequencies --    208.2021               228.5974               240.6919
 Red. masses --     11.1986                 1.2545                 2.9186
 Frc consts  --      0.2860                 0.0386                 0.0996
 IR Inten    --      1.9868                 0.2530                 4.5818

                     16                     17                     18
                      A                      A                      A
 Frequencies --    266.0180               284.0084               303.9612
 Red. masses --      5.0241                 9.7985                 6.3691
 Frc consts  --      0.2095                 0.4657                 0.3467
 IR Inten    --     33.7688                16.7617                17.1752

                     19                     20                     21
                      A                      A                      A
 Frequencies --    307.0794               309.4797               337.5546
 Red. masses --     14.3063                18.4877                 4.8727
 Frc consts  --      0.7948                 1.0433                 0.3271
 IR Inten    --      0.6901                 1.8274                13.3398

                     22                     23                     24
                      A                      A                      A
 Frequencies --    345.6826               371.7882               398.5732
 Red. masses --      7.4567                 6.0533                12.6324
 Frc consts  --      0.5250                 0.4930                 1.1824
 IR Inten    --      1.6897                21.7018                 1.0759

                     25                     26                     27
                      A                      A                      A
 Frequencies --    421.8554               441.9130               453.9267
 Red. masses --      7.1042                13.2145                12.4001
 Frc consts  --      0.7449                 1.5205                 1.5054
 IR Inten    --     11.2319                 4.8559                 1.5091

                     28                     29                     30
                      A                      A                      A
 Frequencies --    507.1108               517.4980               549.9997
 Red. masses --     11.6549                 3.4263                10.9001
 Frc consts  --      1.7659                 0.5406                 1.9427
 IR Inten    --     15.9587                65.8575                35.1690

                     31                     32                     33
                      A                      A                      A
 Frequencies --    553.7501               593.2427               612.5115
 Red. masses --     12.3143                 4.7137                10.3928
 Frc consts  --      2.2248                 0.9774                 2.2973
 IR Inten    --      7.9330                90.9763                72.3633

                     34                     35                     36
                      A                      A                      A
 Frequencies --    685.4898               701.4851               722.3902
 Red. masses --     12.0706                 5.7939                 4.3930
 Frc consts  --      3.3418                 1.6798                 1.3507
 IR Inten    --      0.2307               141.8563                73.9632

                     37                     38                     39
                      A                      A                      A
 Frequencies --    725.4970               745.6483               793.0450
 Red. masses --      2.3709                11.4369                11.7752
 Frc consts  --      0.7352                 3.7465                 4.3633
 IR Inten    --    142.9290                 6.5855                10.0088

                     40                     41                     42
                      A                      A                      A
 Frequencies --    805.3712               899.1761               974.6111
 Red. masses --     11.6044                13.9657                 1.5506
 Frc consts  --      4.4347                 6.6528                 0.8678
 IR Inten    --     11.7320               211.7944               102.6343

                     43                     44                     45
                      A                      A                      A
 Frequencies --   1015.5536              1026.4748              1036.0184
 Red. masses --      9.3962                 1.5256                 1.4065
 Frc consts  --      5.7096                 0.9471                 0.8895
 IR Inten    --    540.6316                55.3407                63.6004

                     46                     47                     48
                      A                      A                      A
 Frequencies --   1050.4835              1084.0671              1099.9127
 Red. masses --      1.3613                 3.6740                 3.4924
 Frc consts  --      0.8851                 2.5439                 2.4894
 IR Inten    --    146.3128                28.3361               422.4962

                     49                     50                     51
                      A                      A                      A
 Frequencies --   1134.8382              1136.2784              1168.8982
 Red. masses --      4.5411                12.9802                13.1306
 Frc consts  --      3.4457                 9.8742                10.5704
 IR Inten    --    117.1323               419.5310                12.4275

                     52                     53                     54
                      A                      A                      A
 Frequencies --   1187.6408              1236.2476              1262.2714
 Red. masses --     11.8517                 1.4136                 9.4391
 Frc consts  --      9.8492                 1.2729                 8.8611
 IR Inten    --    183.6638                82.5022               378.2737

                     55                     56                     57
                      A                      A                      A
 Frequencies --   1338.1210              1345.7792              1362.3447
 Red. masses --      1.3833                 8.6953                11.3901
 Frc consts  --      1.4594                 9.2785                12.4552
 IR Inten    --     22.7668                23.4060               409.6658

                     58                     59                     60
                      A                      A                      A
 Frequencies --   1388.6752              1440.9818              1460.3096
 Red. masses --      1.2915                 1.1707                 1.0683
 Frc consts  --      1.4674                 1.4322                 1.3423
 IR Inten    --     47.7867                 7.9811                 9.5691

                     61                     62                     63
                      A                      A                      A
 Frequencies --   1465.3825              1466.9344              1483.4716
 Red. masses --      1.2529                 4.0652                 1.0381
 Frc consts  --      1.5851                 5.1542                 1.3460
 IR Inten    --     51.7138                48.4147                17.7669

                     64                     65                     66
                      A                      A                      A
 Frequencies --   1493.7265              1539.0115              1550.3715
 Red. masses --      1.0380                12.0894                11.9476
 Frc consts  --      1.3646                16.8709                16.9201
 IR Inten    --     17.5435               696.0304               261.2517

                     67                     68                     69
                      A                      A                      A
 Frequencies --   1635.3502              1660.9729              1671.5346
 Red. masses --      1.1048                11.0121                 9.6173
 Frc consts  --      1.7408                17.8997                15.8319
 IR Inten    --     43.1705                20.5464               389.2588

                     70                     71                     72
                      A                      A                      A
 Frequencies --   1706.8590              3069.6895              3072.2951
 Red. masses --     11.8539                 1.0334                 1.0353
 Frc consts  --     20.3472                 5.7372                 5.7577
 IR Inten    --    253.7823                31.8260                 8.5433

                     73                     74                     75
                      A                      A                      A
 Frequencies --   3149.8615              3154.1633              3166.6748
 Red. masses --      1.1047                 1.1016                 1.1054
 Frc consts  --      6.4575                 6.4571                 6.5312
 IR Inten    --     11.2332                12.9958                13.2526

                     76                     77                     78
                      A                      A                      A
 Frequencies --   3170.8030              3513.9657              3591.9125
 Red. masses --      1.1045                 1.0509                 1.0956
 Frc consts  --      6.5429                 7.6457                 8.3282
 IR Inten    --     14.0264                33.0690                63.7254

 - Thermochemistry -
 -------------------
 Temperature   298.150 Kelvin.  Pressure   1.00000 Atm.
 Atom     1 has atomic number  1 and mass   1.00783

 Molecular mass:   307.04433 amu.
 Principal axes and moments of inertia in atomic units:
                           1         2         3
     Eigenvalues --  2810.218698950.35822**********
           X            0.99995  -0.00579   0.00854
           Y            0.00598   0.99973  -0.02259
           Z           -0.00841   0.02264   0.99971
 This molecule is an asymmetric top.
 Rotational symmetry number  1.
 Warning -- assumption of classical behavior for rotation
           may cause significant error
 Rotational temperatures (Kelvin)      0.03082     0.00968     0.00816
 Rotational constants (GHZ):           0.64221     0.20164     0.17005
    1 imaginary frequencies ignored.
 Zero-point vibrational energy     477162.8 (Joules/Mol)
                                  114.04464 (Kcal/Mol)
 Warning -- explicit consideration of  32 degrees of freedom as
           vibrations may cause significant error
 Vibrational temperatures:     43.53    49.36    60.85    65.58    87.51
          (Kelvin)            144.45   196.91   224.19   235.61   253.39
                              266.39   299.56   328.90   346.30   382.74
                              408.62   437.33   441.82   445.27   485.67
                              497.36   534.92   573.46   606.96   635.81
                              653.10   729.62   744.56   791.33   796.72
                              853.54   881.27   986.27  1009.28  1039.36
                             1043.83  1072.82  1141.01  1158.75  1293.71
                             1402.25  1461.16  1476.87  1490.60  1511.41
                             1559.73  1582.53  1632.78  1634.85  1681.78
                             1708.75  1778.68  1816.13  1925.26  1936.28
                             1960.11  1997.99  2073.25  2101.06  2108.36
                             2110.59  2134.38  2149.14  2214.29  2230.64
                             2352.90  2389.77  2404.97  2455.79  4416.60
                             4420.35  4531.95  4538.14  4556.14  4562.08
                             5055.81  5167.96

 Zero-point correction=                           0.181742 (Hartree/Particle)
 Thermal correction to Energy=                    0.200864
 Thermal correction to Enthalpy=                  0.201808
 Thermal correction to Gibbs Free Energy=         0.132807
 Sum of electronic and zero-point Energies=          -1288.996165
 Sum of electronic and thermal Energies=             -1288.977042
 Sum of electronic and thermal Enthalpies=           -1288.976098
 Sum of electronic and thermal Free Energies=        -1289.045100

                     E (Thermal)             CV                S
                      KCal/Mol        Cal/Mol-Kelvin    Cal/Mol-Kelvin
 Total                  126.044             68.905            145.226
 Electronic               0.000              0.000              0.000
 Translational            0.889              2.981             43.062
 Rotational               0.889              2.981             33.945
 Vibrational            124.267             62.944             68.219
 Vibration     1          0.594              1.984              5.813
 Vibration     2          0.594              1.983              5.563
 Vibration     3          0.595              1.980              5.149
 Vibration     4          0.595              1.979              5.000
 Vibration     5          0.597              1.973              4.430
 Vibration     6          0.604              1.949              3.447
 Vibration     7          0.614              1.917              2.847
 Vibration     8          0.620              1.896              2.600
 Vibration     9          0.623              1.887              2.506
 Vibration    10          0.628              1.872              2.369
 Vibration    11          0.631              1.860              2.276
 Vibration    12          0.642              1.828              2.059
 Vibration    13          0.651              1.797              1.890
 Vibration    14          0.658              1.778              1.798
 Vibration    15          0.672              1.735              1.622
 Vibration    16          0.682              1.703              1.509
 Vibration    17          0.695              1.666              1.395
 Vibration    18          0.697              1.660              1.378
 Vibration    19          0.699              1.656              1.365
 Vibration    20          0.718              1.600              1.224
 Vibration    21          0.724              1.584              1.186
 Vibration    22          0.743              1.530              1.072
 Vibration    23          0.765              1.473              0.968
 Vibration    24          0.784              1.423              0.886
 Vibration    25          0.802              1.379              0.821
 Vibration    26          0.812              1.352              0.784
 Vibration    27          0.862              1.234              0.641
 Vibration    28          0.873              1.211              0.616
 Vibration    29          0.905              1.140              0.544
 Vibration    30          0.909              1.131              0.536
 Vibration    31          0.951              1.046              0.461
 Vibration    32          0.972              1.005              0.429

                           ! Non-Optimized Parameters !
 Normal termination of Gaussian 16 at Tue Jul  9 03:21:56 2024.
