 Gaussian 16, Revision B.01,
 Gaussian 16:  ES64L-G16RevB.01 20-Dec-2017

 ----------------------------------------------------------------------
 #P PBE1PBE/def2TZVP opt freq EmpiricalDispersion=GD3 Int=(grid=99590)
 scrf=(iefpcm, solvent=water)
 ----------------------------------------------------------------------

 ------------------------
 x=chf2 lg+ester reactant
 ------------------------
 Symbolic Z-matrix:
 Charge =  0 Multiplicity = 1

 SCF Done:  E(RPBE1PBE) =  -1154.05082066     A.U. after   12 cycles
 SCF Done:  E(RPBE1PBE) =  -1154.07551385     A.U. after   11 cycles
 SCF Done:  E(RPBE1PBE) =  -1154.07743264     A.U. after   10 cycles
 SCF Done:  E(RPBE1PBE) =  -1154.07296142     A.U. after   11 cycles
 SCF Done:  E(RPBE1PBE) =  -1154.07813891     A.U. after   10 cycles
 SCF Done:  E(RPBE1PBE) =  -1154.07834033     A.U. after   10 cycles
 SCF Done:  E(RPBE1PBE) =  -1154.07845461     A.U. after   10 cycles
 SCF Done:  E(RPBE1PBE) =  -1154.07849281     A.U. after    9 cycles
 SCF Done:  E(RPBE1PBE) =  -1154.07850037     A.U. after    8 cycles
 SCF Done:  E(RPBE1PBE) =  -1154.07850221     A.U. after    8 cycles
 SCF Done:  E(RPBE1PBE) =  -1154.07867193     A.U. after    6 cycles
 SCF Done:  E(RPBE1PBE) =  -1154.07806105     A.U. after   10 cycles
 SCF Done:  E(RPBE1PBE) =  -1154.07841802     A.U. after   10 cycles
 SCF Done:  E(RPBE1PBE) =  -1154.07869115     A.U. after    7 cycles
 SCF Done:  E(RPBE1PBE) =  -1154.07869458     A.U. after    9 cycles
 SCF Done:  E(RPBE1PBE) =  -1154.07866406     A.U. after    9 cycles
 SCF Done:  E(RPBE1PBE) =  -1154.07839004     A.U. after   10 cycles
 SCF Done:  E(RPBE1PBE) =  -1154.07870295     A.U. after    8 cycles
 SCF Done:  E(RPBE1PBE) =  -1154.07870343     A.U. after    7 cycles
 Optimization completed.
    -- Stationary point found.
 Normal termination of Gaussian 16 at Fri Feb 14 12:42:45 2025.

 ----------------------------------------------------------------------
 #P Geom=AllCheck Guess=TCheck SCRF=Check GenChk RPBE1PBE/def2TZVP Freq
 ----------------------------------------------------------------------

 Structure from the checkpoint file:  "/scratch/Gau-48679.chk"
 ------------------------
 x=chf2 lg+ester reactant
 ------------------------
 Charge =  0 Multiplicity = 1

                         Standard orientation:
 ---------------------------------------------------------------------
 Center     Atomic      Atomic             Coordinates (Angstroms)
 Number     Number       Type             X           Y           Z
 ---------------------------------------------------------------------
      1          8           0        1.889213    0.320636    1.486729
      2          6           0        2.163908   -0.102492    0.411013
      3          6           0        3.578985   -0.403824   -0.093777
      4          8           0        1.284966   -0.417624   -0.562926
      5          6           0       -0.047442   -0.203221   -0.308121
      6          6           0       -0.566017    1.079727   -0.236333
      7          6           0       -0.896220   -1.290774   -0.185415
      8          6           0       -1.921412    1.277243   -0.040783
      9          6           0       -2.254578   -1.100200    0.003523
     10          6           0       -2.765479    0.184912    0.077236
     11          9           0        0.238501    2.123248   -0.358636
     12          9           0       -0.410651   -2.519625   -0.248065
     13          9           0       -2.412875    2.504116    0.028904
     14          9           0       -3.063398   -2.141679    0.117041
     15          9           0       -4.061629    0.370164    0.259987
     16          9           0        3.822403    0.349286   -1.191166
     17          1           0        3.698426   -1.460308   -0.349728
     18          9           0        4.460723   -0.064624    0.858074
 ---------------------------------------------------------------------

 SCF Done:  E(RPBE1PBE) =  -1154.07870343     A.U. after    1 cycles

 The electronic state is 1-A.
 Alpha  occ. eigenvalues --  -24.82595 -24.82541 -24.82462 -24.82366 -24.82356
 Alpha  occ. eigenvalues --  -24.80722 -24.80679 -19.31270 -19.24435 -10.41439
 Alpha  occ. eigenvalues --  -10.39761 -10.35517 -10.35501 -10.35490 -10.35204
 Alpha  occ. eigenvalues --  -10.35185 -10.33611  -1.32137  -1.31946  -1.31398
 Alpha  occ. eigenvalues --   -1.30879  -1.30021  -1.29546  -1.26054  -1.19871
 Alpha  occ. eigenvalues --   -1.11127  -0.94618  -0.84451  -0.82321  -0.78900
 Alpha  occ. eigenvalues --   -0.72464  -0.70987  -0.67234  -0.64237  -0.63654
 Alpha  occ. eigenvalues --   -0.62043  -0.60534  -0.60192  -0.59408  -0.58762
 Alpha  occ. eigenvalues --   -0.57909  -0.57041  -0.56339  -0.54429  -0.53759
 Alpha  occ. eigenvalues --   -0.52759  -0.50935  -0.50359  -0.49948  -0.49270
 Alpha  occ. eigenvalues --   -0.48438  -0.47692  -0.47048  -0.46038  -0.45306
 Alpha  occ. eigenvalues --   -0.44855  -0.43909  -0.42133  -0.40663  -0.39057
 Alpha  occ. eigenvalues --   -0.37846  -0.33905  -0.28913  -0.28378
 Alpha virt. eigenvalues --   -0.04652  -0.02875  -0.02499  -0.02184   0.06654
 Alpha virt. eigenvalues --    0.07046   0.07666   0.10685   0.12368   0.13429
 Alpha virt. eigenvalues --    0.14434   0.15773   0.17305   0.17794   0.18685

 Mulliken charges:
               1
     1  O   -0.295493
     2  C    0.313709
     3  C    0.252848
     4  O   -0.210093
     5  C    0.138846
     6  C    0.193814
     7  C    0.135236
     8  C    0.172927
     9  C    0.172913
    10  C    0.158127
    11  F   -0.164101
    12  F   -0.160842
    13  F   -0.163800
    14  F   -0.164228
    15  F   -0.160331
    16  F   -0.180613
    17  H    0.135498
    18  F   -0.174419
 Sum of Mulliken charges =  -0.00000

 Dipole moment (field-independent basis, Debye):
    X=             -0.3344    Y=             -2.2475    Z=             -1.6754  Tot=              2.8231
 Quadrupole moment (field-independent basis, Debye-Ang):
   XX=            -96.0475   YY=            -91.9479   ZZ=            -92.2731
   XY=             -7.5251   XZ=             -2.4958   YZ=             -0.6236

  Exact polarizability: 155.675  -0.336 131.032  -3.261   3.113  86.219
 Approx polarizability: 169.780   0.314 162.540  -7.387   5.219 105.202

                      1                      2                      3
                      A                      A                      A
 Frequencies --     25.8729                39.4900                51.9375
 Red. masses --     11.8314                15.3617                14.6613
 Frc consts  --      0.0047                 0.0141                 0.0233
 IR Inten    --      2.1553                 0.2582                 1.4317

                      4                      5                      6
                      A                      A                      A
 Frequencies --     59.2545               137.2140               141.6659
 Red. masses --     15.8750                17.9916                17.6764
 Frc consts  --      0.0328                 0.1996                 0.2090
 IR Inten    --      0.7085                 0.2296                 0.2660

                      7                      8                      9
                      A                      A                      A
 Frequencies --    174.2581               188.1764               235.7362
 Red. masses --     15.2568                17.4968                13.9479
 Frc consts  --      0.2730                 0.3650                 0.4567
 IR Inten    --      0.3366                 0.3455                 3.2748

                     10                     11                     12
                      A                      A                      A
 Frequencies --    269.0040               275.2725               281.1166
 Red. masses --     14.2197                18.3768                15.4103
 Frc consts  --      0.6063                 0.8204                 0.7175
 IR Inten    --      3.8112                 0.8142                 2.1123

                     13                     14                     15
                      A                      A                      A
 Frequencies --    310.3954               314.3767               348.3524
 Red. masses --     16.3751                15.7499                16.7979
 Frc consts  --      0.9295                 0.9171                 1.2010
 IR Inten    --      1.1482                13.5917                 2.4917

                     16                     17                     18
                      A                      A                      A
 Frequencies --    369.4142               384.4988               406.9183
 Red. masses --     12.6782                12.6664                12.5536
 Frc consts  --      1.0194                 1.1033                 1.2247
 IR Inten    --      4.8770                 0.0565                 5.0201

                     19                     20                     21
                      A                      A                      A
 Frequencies --    449.4587               481.0894               551.8304
 Red. masses --     15.8755                15.2607                14.9371
 Frc consts  --      1.8895                 2.0810                 2.6800
 IR Inten    --      0.0954                 6.6312                18.3019

                     22                     23                     24
                      A                      A                      A
 Frequencies --    590.7426               630.0446               642.6549
 Red. masses --     16.8460                 7.8723                13.7382
 Frc consts  --      3.4637                 1.8412                 3.3430
 IR Inten    --      0.8176                37.2278                 5.5200

                     25                     26                     27
                      A                      A                      A
 Frequencies --    675.7285               686.8072               741.2414
 Red. masses --     12.1832                10.1695                11.9315
 Frc consts  --      3.2776                 2.8263                 3.8625
 IR Inten    --      0.0550                 2.5014                 3.9651

                     28                     29                     30
                      A                      A                      A
 Frequencies --    799.7406               847.4242               953.1137
 Red. masses --     12.6028                11.5526                 8.7222
 Frc consts  --      4.7492                 4.8880                 4.6684
 IR Inten    --      2.3080                51.3689                16.9672

                     31                     32                     33
                      A                      A                      A
 Frequencies --   1019.4562              1029.3808              1114.0769
 Red. masses --     12.3748                14.1300                 7.9930
 Frc consts  --      7.5775                 8.8216                 5.8451
 IR Inten    --    294.3165               419.5483               283.7803

                     34                     35                     36
                      A                      A                      A
 Frequencies --   1150.5041              1182.9751              1188.6391
 Red. masses --      9.8169                 9.1903                13.5660
 Frc consts  --      7.6560                 7.5776                11.2928
 IR Inten    --    569.0541               128.2557                 0.5895

                     37                     38                     39
                      A                      A                      A
 Frequencies --   1227.2983              1339.6357              1344.4029
 Red. masses --      3.0961                11.7279                11.9501
 Frc consts  --      2.7477                12.4006                12.7257
 IR Inten    --    333.1287                 4.0142                 3.9836

                     40                     41                     42
                      A                      A                      A
 Frequencies --   1368.9512              1418.8845              1523.4410
 Red. masses --      1.1754                 1.8160                12.6876
 Frc consts  --      1.2978                 2.1540                17.3492
 IR Inten    --     18.4572                25.3993                26.9870

                     43                     44                     45
                      A                      A                      A
 Frequencies --   1565.1541              1568.7052              1700.8007
 Red. masses --     12.3505                12.3025                12.0391
 Frc consts  --     17.8258                17.8372                20.5187
 IR Inten    --    487.8901               603.0960                 1.1979

                     46                     47                     48
                      A                      A                      A
 Frequencies --   1704.0030              1878.9966              3106.4946
 Red. masses --     12.0330                13.1704                 1.0861
 Frc consts  --     20.5857                27.3968                 6.1755
 IR Inten    --      8.9464               367.4061                14.0750

 - Thermochemistry -
 -------------------
 Temperature   298.150 Kelvin.  Pressure   1.00000 Atm.
 Atom     1 has atomic number  8 and mass  15.99491

 Molecular mass:   261.98648 amu.
 Principal axes and moments of inertia in atomic units:
                           1         2         3
     Eigenvalues --  2093.518676681.529828124.35519
           X            0.99999  -0.00545   0.00053
           Y            0.00545   0.99998   0.00295
           Z           -0.00055  -0.00295   1.00000
 This molecule is an asymmetric top.
 Rotational symmetry number  1.
 Warning -- assumption of classical behavior for rotation
           may cause significant error
 Rotational temperatures (Kelvin)      0.04137     0.01296     0.01066
 Rotational constants (GHZ):           0.86206     0.27011     0.22214
 Zero-point vibrational energy     230249.0 (Joules/Mol)
                                   55.03084 (Kcal/Mol)
 Warning -- explicit consideration of  22 degrees of freedom as
           vibrations may cause significant error
 Vibrational temperatures:     37.23    56.82    74.73    85.25   197.42
          (Kelvin)            203.83   250.72   270.74   339.17   387.04
                              396.06   404.46   446.59   452.32   501.20
                              531.50   553.21   585.46   646.67   692.18
                              793.96   849.95   906.49   924.64   972.22
                              988.16  1066.48  1150.65  1219.25  1371.32
                             1466.77  1481.05  1602.91  1655.32  1702.04
                             1710.19  1765.81  1927.44  1934.30  1969.62
                             2041.46  2191.89  2251.91  2257.02  2447.07
                             2451.68  2703.46  4469.55

 Zero-point correction=                           0.087697 (Hartree/Particle)
 Thermal correction to Energy=                    0.102307
 Thermal correction to Enthalpy=                  0.103251
 Thermal correction to Gibbs Free Energy=         0.043741
 Sum of electronic and zero-point Energies=          -1153.991006
 Sum of electronic and thermal Energies=             -1153.976396
 Sum of electronic and thermal Enthalpies=           -1153.975452
 Sum of electronic and thermal Free Energies=        -1154.034962

                     E (Thermal)             CV                S
                      KCal/Mol        Cal/Mol-Kelvin    Cal/Mol-Kelvin
 Total                   64.199             51.227            125.249
 Electronic               0.000              0.000              0.000
 Translational            0.889              2.981             42.589
 Rotational               0.889              2.981             33.096
 Vibrational             62.421             45.265             49.564
 Vibration     1          0.593              1.985              6.123
 Vibration     2          0.594              1.981              5.285
 Vibration     3          0.596              1.977              4.742
 Vibration     4          0.597              1.974              4.482
 Vibration     5          0.614              1.916              2.842
 Vibration     6          0.615              1.912              2.781
 Vibration     7          0.627              1.874              2.389
 Vibration     8          0.633              1.856              2.246
 Vibration     9          0.655              1.786              1.835
 Vibration    10          0.673              1.730              1.603
 Vibration    11          0.677              1.719              1.563
 Vibration    12          0.681              1.709              1.527
 Vibration    13          0.699              1.654              1.360
 Vibration    14          0.702              1.646              1.339
 Vibration    15          0.726              1.579              1.174
 Vibration    16          0.742              1.535              1.082
 Vibration    17          0.753              1.503              1.021
 Vibration    18          0.772              1.455              0.938
 Vibration    19          0.808              1.362              0.797
 Vibration    20          0.837              1.292              0.707
 Vibration    21          0.907              1.136              0.540
 Vibration    22          0.948              1.052              0.466

 Optimization completed.
    -- Stationary point found.
 Normal termination of Gaussian 16 at Fri Feb 14 12:51:02 2025.
