 Gaussian 16, Revision B.01,
 Gaussian 16:  ES64L-G16RevB.01 20-Dec-2017

 ----------------------------------------------------------------------
 #P PBE1PBE/def2TZVP opt freq EmpiricalDispersion=GD3 Int=(grid=99590)
 scrf=(iefpcm, solvent=water)
 ----------------------------------------------------------------------

 -------------
 pfp-cf3_ester
 -------------
 Symbolic Z-matrix:
 Charge =  0 Multiplicity = 1

 SCF Done:  E(RPBE1PBE) =  -1193.35342199     A.U. after   13 cycles
 SCF Done:  E(RPBE1PBE) =  -1193.38714984     A.U. after   11 cycles
 SCF Done:  E(RPBE1PBE) =  -1193.39587829     A.U. after   11 cycles
 SCF Done:  E(RPBE1PBE) =  -1193.39779955     A.U. after   10 cycles
 SCF Done:  E(RPBE1PBE) =  -1193.39745611     A.U. after   10 cycles
 SCF Done:  E(RPBE1PBE) =  -1193.39764353     A.U. after   10 cycles
 SCF Done:  E(RPBE1PBE) =  -1193.39797647     A.U. after    8 cycles
 SCF Done:  E(RPBE1PBE) =  -1193.39815103     A.U. after   10 cycles
 SCF Done:  E(RPBE1PBE) =  -1193.39831718     A.U. after   10 cycles
 SCF Done:  E(RPBE1PBE) =  -1193.39864267     A.U. after   10 cycles
 SCF Done:  E(RPBE1PBE) =  -1193.39879135     A.U. after   10 cycles
 SCF Done:  E(RPBE1PBE) =  -1193.39885684     A.U. after   10 cycles
 SCF Done:  E(RPBE1PBE) =  -1193.39895172     A.U. after   10 cycles
 SCF Done:  E(RPBE1PBE) =  -1193.39894247     A.U. after    8 cycles
 SCF Done:  E(RPBE1PBE) =  -1193.39896545     A.U. after    8 cycles
 SCF Done:  E(RPBE1PBE) =  -1193.39896698     A.U. after    7 cycles
 SCF Done:  E(RPBE1PBE) =  -1193.39896899     A.U. after    7 cycles
 SCF Done:  E(RPBE1PBE) =  -1193.39896903     A.U. after    5 cycles
 SCF Done:  E(RPBE1PBE) =  -1193.39896905     A.U. after    5 cycles
 Optimization completed.
    -- Stationary point found.
 Normal termination of Gaussian 16 at Tue Jul  2 20:26:16 2024.

 ----------------------------------------------------------------------
 #P Geom=AllCheck Guess=TCheck SCRF=Check GenChk RPBE1PBE/def2TZVP Freq
 ----------------------------------------------------------------------

 Structure from the checkpoint file:  "/scratch/Gau-295339.chk"
 -------------
 pfp-cf3_ester
 -------------
 Charge =  0 Multiplicity = 1

                         Standard orientation:
 ---------------------------------------------------------------------
 Center     Atomic      Atomic             Coordinates (Angstroms)
 Number     Number       Type             X           Y           Z
 ---------------------------------------------------------------------
      1          8           0       -3.127235   -0.486908    1.455026
      2          6           0       -3.526713   -0.069742    0.410188
      3          6           0       -4.935867    0.112813   -0.024138
      4          1           0       -5.125860   -0.506472   -0.902864
      5          1           0       -5.606037   -0.166299    0.783974
      6          1           0       -5.099473    1.152337   -0.312890
      7          8           0       -2.668957    0.325819   -0.593578
      8          6           0       -1.334666    0.182919   -0.370024
      9          6           0       -0.539556    1.310696   -0.235579
     10          6           0       -0.734696   -1.064324   -0.336978
     11          6           0        0.826020    1.180553   -0.077364
     12          6           0        0.635029   -1.189573   -0.171125
     13          6           0        1.441489   -0.066042   -0.040004
     14          9           0       -1.089941    2.513979   -0.257609
     15          9           0       -1.476315   -2.152758   -0.472918
     16          9           0        1.552494    2.283213    0.045454
     17          9           0        1.131704   -2.416317   -0.149212
     18          6           0        2.937751   -0.112289    0.137580
     19          9           0        3.300579    0.476395    1.284930
     20          9           0        3.556119    0.544302   -0.853008
     21          9           0        3.424043   -1.348915    0.156239
 ---------------------------------------------------------------------

 SCF Done:  E(RPBE1PBE) =  -1193.39896905     A.U. after    1 cycles

 The electronic state is 1-A.
 Alpha  occ. eigenvalues --  -24.82367 -24.82237 -24.82221 -24.82220 -24.82161
 Alpha  occ. eigenvalues --  -24.81807 -24.81806 -19.29400 -19.22360 -10.50011
 Alpha  occ. eigenvalues --  -10.38211 -10.36005 -10.35786 -10.35050 -10.35003
 Alpha  occ. eigenvalues --  -10.33734 -10.29360 -10.23952  -1.37247  -1.31398
 Alpha  occ. eigenvalues --   -1.31354  -1.29906  -1.29844  -1.28025  -1.27654
 Alpha  occ. eigenvalues --   -1.18057  -1.09116  -0.94826  -0.85853  -0.81979
 Alpha  occ. eigenvalues --   -0.80497  -0.75599  -0.71168  -0.70426  -0.66088
 Alpha  occ. eigenvalues --   -0.64618  -0.64469  -0.63450  -0.61783  -0.60416
 Alpha  occ. eigenvalues --   -0.58624  -0.58331  -0.55981  -0.55580  -0.53852
 Alpha  occ. eigenvalues --   -0.53566  -0.52980  -0.51252  -0.50938  -0.50841
 Alpha  occ. eigenvalues --   -0.50303  -0.49878  -0.48020  -0.47087  -0.46739
 Alpha  occ. eigenvalues --   -0.46582  -0.45380  -0.44654  -0.44604  -0.43440
 Alpha  occ. eigenvalues --   -0.43320  -0.41257  -0.41099  -0.39229  -0.36857
 Alpha  occ. eigenvalues --   -0.32671  -0.30076  -0.28200
 Alpha virt. eigenvalues --   -0.05530  -0.02387  -0.01144  -0.00262   0.05950
 Alpha virt. eigenvalues --    0.06387   0.10395   0.11133   0.11362   0.12146
 Alpha virt. eigenvalues --    0.12821   0.13388   0.14780   0.15348   0.16104

 Mulliken charges:
               1
     1  O   -0.333773
     2  C    0.324021
     3  C   -0.366580
     4  H    0.168895
     5  H    0.156456
     6  H    0.168592
     7  O   -0.229614
     8  C    0.157081
     9  C    0.114917
    10  C    0.186949
    11  C    0.185623
    12  C    0.192381
    13  C   -0.090206
    14  F   -0.162697
    15  F   -0.166647
    16  F   -0.162663
    17  F   -0.158879
    18  C    0.473850
    19  F   -0.155068
    20  F   -0.155241
    21  F   -0.147396
 Sum of Mulliken charges =  -0.00000

 Dipole moment (field-independent basis, Debye):
    X=             -4.2832    Y=              0.6595    Z=             -2.1192  Tot=              4.8240
 Quadrupole moment (field-independent basis, Debye-Ang):
   XX=            -84.2296   YY=           -102.1322   ZZ=            -98.8271
   XY=             -3.3231   XZ=              5.0646   YZ=              1.6674

  Exact polarizability: 181.624  -0.085 145.765   4.728  -2.295  99.547
 Approx polarizability: 188.764  -0.242 181.828   9.134  -3.678 118.931

                      1                      2                      3
                      A                      A                      A
 Frequencies --     33.7969                44.0114                52.5213
 Red. masses --     17.1873                10.2322                 7.7173
 Frc consts  --      0.0116                 0.0117                 0.0125
 IR Inten    --      0.3168                 0.3756                 1.8524

                      4                      5                      6
                      A                      A                      A
 Frequencies --     61.9145                94.8243               101.8923
 Red. masses --      2.3688                 1.3169                10.0176
 Frc consts  --      0.0054                 0.0070                 0.0613
 IR Inten    --      5.3638                 0.5056                 2.1177

                      7                      8                      9
                      A                      A                      A
 Frequencies --    134.8066               166.4289               168.2045
 Red. masses --     18.3539                17.0569                15.7371
 Frc consts  --      0.1965                 0.2784                 0.2623
 IR Inten    --      0.1134                 0.7955                 0.6234

                     10                     11                     12
                      A                      A                      A
 Frequencies --    214.4663               253.5045               286.1912
 Red. masses --     15.7024                 7.3479                13.6885
 Frc consts  --      0.4255                 0.2782                 0.6606
 IR Inten    --      2.2341                 3.3873                 1.0534

                     13                     14                     15
                      A                      A                      A
 Frequencies --    297.9807               308.1254               311.0515
 Red. masses --     12.0438                18.3104                10.0495
 Frc consts  --      0.6301                 1.0242                 0.5729
 IR Inten    --      1.0262                 1.4921                 4.1577

                     16                     17                     18
                      A                      A                      A
 Frequencies --    313.6645               348.2877               399.3578
 Red. masses --     10.5345                14.7766                12.4058
 Frc consts  --      0.6107                 1.0561                 1.1657
 IR Inten    --      0.1292                 2.1569                 0.1313

                     19                     20                     21
                      A                      A                      A
 Frequencies --    417.0295               446.4543               453.9570
 Red. masses --      6.6590                15.0287                13.9624
 Frc consts  --      0.6823                 1.7649                 1.6953
 IR Inten    --      9.9335                 1.6329                 1.6686

                     22                     23                     24
                      A                      A                      A
 Frequencies --    509.4495               552.2873               556.8945
 Red. masses --     13.9674                17.5034                14.0666
 Frc consts  --      2.1358                 3.1456                 2.5703
 IR Inten    --      0.2994                 3.3508                 1.8245

                     25                     26                     27
                      A                      A                      A
 Frequencies --    577.4164               596.5335               658.0869
 Red. masses --      6.3119                 2.7138                10.8384
 Frc consts  --      1.2399                 0.5690                 2.7656
 IR Inten    --     30.4701                 6.0249                 4.4061

                     28                     29                     30
                      A                      A                      A
 Frequencies --    689.1086               722.1120               743.2373
 Red. masses --     12.1453                15.5688                 9.2214
 Frc consts  --      3.3981                 4.7831                 3.0013
 IR Inten    --      0.2449                67.1410                12.8838

                     31                     32                     33
                      A                      A                      A
 Frequencies --    780.4621               800.5004               881.3569
 Red. masses --     10.4290                11.9820                 7.9797
 Frc consts  --      3.7428                 4.5238                 3.6521
 IR Inten    --      6.2678                 5.0851                38.9315

                     34                     35                     36
                      A                      A                      A
 Frequencies --    914.4846              1011.8027              1027.7074
 Red. masses --     10.2175                 2.2469                 7.7165
 Frc consts  --      5.0344                 1.3553                 4.8018
 IR Inten    --    182.7844               170.8556               396.0379

                     37                     38                     39
                      A                      A                      A
 Frequencies --   1059.7107              1115.2347              1143.1546
 Red. masses --      1.8362                11.0907                13.0930
 Frc consts  --      1.2149                 8.1272                10.0809
 IR Inten    --     19.2543                72.6011               430.5912

                     40                     41                     42
                      A                      A                      A
 Frequencies --   1178.8893              1188.1231              1200.5638
 Red. masses --     12.6253                 8.3248                 4.5744
 Frc consts  --     10.3381                 6.9238                 3.8847
 IR Inten    --    138.8060               598.5827               444.9302

                     43                     44                     45
                      A                      A                      A
 Frequencies --   1256.0999              1344.9409              1364.1680
 Red. masses --      9.1464                12.0088                11.3146
 Frc consts  --      8.5025                12.7984                12.4058
 IR Inten    --    208.8577                17.5462               405.7174

                     46                     47                     48
                      A                      A                      A
 Frequencies --   1389.8941              1445.8003              1451.4230
 Red. masses --      1.3580                 1.0535                 1.0436
 Frc consts  --      1.5457                 1.2975                 1.2954
 IR Inten    --    127.7765                27.2730                18.7822

                     49                     50                     51
                      A                      A                      A
 Frequencies --   1470.3707              1545.5920              1554.8565
 Red. masses --     12.5851                12.2833                12.2279
 Frc consts  --     16.0310                17.2884                17.4174
 IR Inten    --     57.7050               638.7221               315.9856

                     52                     53                     54
                      A                      A                      A
 Frequencies --   1677.7895              1707.9128              1848.7143
 Red. masses --     12.0339                12.0346                11.9320
 Frc consts  --     19.9586                20.6829                24.0272
 IR Inten    --      1.0998                88.5771               397.6579

                     55                     56                     57
                      A                      A                      A
 Frequencies --   3077.2738              3149.6840              3199.0457
 Red. masses --      1.0370                 1.0999                 1.1042
 Frc consts  --      5.7858                 6.4288                 6.6579
 IR Inten    --      0.4084                 0.1863                 3.6757

 - Thermochemistry -
 -------------------
 Temperature   298.150 Kelvin.  Pressure   1.00000 Atm.
 Atom     1 has atomic number  8 and mass  15.99491

 Molecular mass:   276.00213 amu.
 Principal axes and moments of inertia in atomic units:
                           1         2         3
     Eigenvalues --  2276.411846677.256608246.38326
           X            1.00000  -0.00204  -0.00048
           Y            0.00204   1.00000  -0.00184
           Z            0.00048   0.00184   1.00000
 This molecule is an asymmetric top.
 Rotational symmetry number  1.
 Warning -- assumption of classical behavior for rotation
           may cause significant error
 Rotational temperatures (Kelvin)      0.03805     0.01297     0.01050
 Rotational constants (GHZ):           0.79280     0.27028     0.21885
 Zero-point vibrational energy     300855.7 (Joules/Mol)
                                   71.90625 (Kcal/Mol)
 Warning -- explicit consideration of  26 degrees of freedom as
           vibrations may cause significant error
 Vibrational temperatures:     48.63    63.32    75.57    89.08   136.43
          (Kelvin)            146.60   193.96   239.45   242.01   308.57
                              364.74   411.77   428.73   443.32   447.53
                              451.29   501.11   574.59   600.01   642.35
                              653.14   732.98   794.62   801.25   830.77
                              858.28   946.84   991.47  1038.96  1069.35
                             1122.91  1151.74  1268.08  1315.74  1455.76
                             1478.64  1524.69  1604.57  1644.74  1696.16
                             1709.44  1727.34  1807.25  1935.07  1962.73
                             1999.75  2080.18  2088.27  2115.54  2223.76
                             2237.09  2413.96  2457.31  2659.89  4427.51
                             4531.69  4602.71

 Zero-point correction=                           0.114590 (Hartree/Particle)
 Thermal correction to Energy=                    0.130656
 Thermal correction to Enthalpy=                  0.131600
 Thermal correction to Gibbs Free Energy=         0.069321
 Sum of electronic and zero-point Energies=          -1193.284379
 Sum of electronic and thermal Energies=             -1193.268313
 Sum of electronic and thermal Enthalpies=           -1193.267369
 Sum of electronic and thermal Free Energies=        -1193.329648

                     E (Thermal)             CV                S
                      KCal/Mol        Cal/Mol-Kelvin    Cal/Mol-Kelvin
 Total                   81.988             57.008            131.077
 Electronic               0.000              0.000              0.000
 Translational            0.889              2.981             42.744
 Rotational               0.889              2.981             33.194
 Vibrational             80.211             51.046             55.139
 Vibration     1          0.594              1.983              5.593
 Vibration     2          0.595              1.980              5.070
 Vibration     3          0.596              1.977              4.720
 Vibration     4          0.597              1.972              4.395
 Vibration     5          0.603              1.953              3.558
 Vibration     6          0.604              1.948              3.418
 Vibration     7          0.613              1.919              2.876
 Vibration     8          0.624              1.884              2.475
 Vibration     9          0.625              1.882              2.455
 Vibration    10          0.644              1.819              2.005
 Vibration    11          0.665              1.757              1.706
 Vibration    12          0.684              1.699              1.496
 Vibration    13          0.691              1.677              1.428
 Vibration    14          0.698              1.658              1.372
 Vibration    15          0.700              1.653              1.357
 Vibration    16          0.702              1.648              1.343
 Vibration    17          0.726              1.579              1.174
 Vibration    18          0.765              1.471              0.965
 Vibration    19          0.780              1.433              0.902
 Vibration    20          0.806              1.369              0.807
 Vibration    21          0.812              1.352              0.784
 Vibration    22          0.865              1.229              0.635
 Vibration    23          0.908              1.135              0.539
 Vibration    24          0.912              1.125              0.530
 Vibration    25          0.934              1.080              0.490
 Vibration    26          0.954              1.039              0.456

                           ! Non-Optimized Parameters !
 Normal termination of Gaussian 16 at Tue Jul  2 20:41:17 2024.
