 Gaussian 16, Revision B.01,
 Gaussian 16:  ES64L-G16RevB.01 20-Dec-2017

 ----------------------------------------------------------------------
 #P PBE1PBE/def2TZVP opt freq EmpiricalDispersion=GD3 Int=(grid=99590)
 scrf=(iefpcm, solvent=water)
 ----------------------------------------------------------------------

 ------------
 Methyl_Amine
 ------------
 Symbolic Z-matrix:
 Charge =  0 Multiplicity = 1

 SCF Done:  E(RPBE1PBE) =  -95.7799295199     A.U. after    9 cycles
 SCF Done:  E(RPBE1PBE) =  -95.7822847166     A.U. after    9 cycles
 SCF Done:  E(RPBE1PBE) =  -95.7824053220     A.U. after    8 cycles
 SCF Done:  E(RPBE1PBE) =  -95.7824100769     A.U. after    7 cycles
 Optimization completed.
    -- Stationary point found.
 Normal termination of Gaussian 16 at Tue Jul  2 17:46:19 2024.

 ----------------------------------------------------------------------
 #P Geom=AllCheck Guess=TCheck SCRF=Check GenChk RPBE1PBE/def2TZVP Freq
 ----------------------------------------------------------------------

 Structure from the checkpoint file:  "/scratch/Gau-315969.chk"
 ------------
 Methyl_Amine
 ------------
 Charge =  0 Multiplicity = 1

                         Standard orientation:
 ---------------------------------------------------------------------
 Center     Atomic      Atomic             Coordinates (Angstroms)
 Number     Number       Type             X           Y           Z
 ---------------------------------------------------------------------
      1          1           0        0.455314   -1.099257    0.807847
      2          7           0       -0.052322   -0.757479    0.000000
      3          1           0        0.455314   -1.099257   -0.807847
      4          6           0       -0.052322    0.701287   -0.000000
      5          1           0       -0.587831    1.065977   -0.879736
      6          1           0       -0.587831    1.065977    0.879736
      7          1           0        0.945220    1.161196   -0.000000
 ---------------------------------------------------------------------

 SCF Done:  E(RPBE1PBE) =  -95.7824100769     A.U. after    1 cycles

 The electronic state is 1-A'.
 Alpha  occ. eigenvalues --  -14.36037 -10.23154  -0.90109  -0.67659  -0.50260
 Alpha  occ. eigenvalues --   -0.45314  -0.41426  -0.37570  -0.25701
 Alpha virt. eigenvalues --    0.04891   0.09021   0.11368   0.13588   0.14384
 Alpha virt. eigenvalues --    0.17663   0.24010   0.25409   0.28863   0.34369
 Alpha virt. eigenvalues --    0.37821   0.40532   0.44080   0.48113   0.48469

 Mulliken charges:
               1
     1  H    0.240114
     2  N   -0.576279
     3  H    0.240114
     4  C   -0.277055
     5  H    0.129303
     6  H    0.129303
     7  H    0.114500
 Sum of Mulliken charges =  -0.00000

 Dipole moment (field-independent basis, Debye):
    X=              1.6606    Y=              0.4451    Z=             -0.0000  Tot=              1.7192
 Quadrupole moment (field-independent basis, Debye-Ang):
   XX=            -14.9443   YY=            -14.3485   ZZ=            -12.4879
   XY=             -2.3922   XZ=              0.0000   YZ=             -0.0000

  Exact polarizability:  25.514  -0.260  29.067  -0.000  -0.000  26.704
 Approx polarizability:  26.020  -0.493  28.422  -0.000  -0.000  28.214

                      1                      2                      3
                     A"                     A'                     A"
 Frequencies --    310.5007               871.7492               980.6254
 Red. masses --      1.0307                 1.2061                 1.0544
 Frc consts  --      0.0585                 0.5400                 0.5974
 IR Inten    --     57.4619               219.8425                 0.2719

                      4                      5                      6
                     A'                     A'                     A"
 Frequencies --   1077.2295              1179.7187              1347.6998
 Red. masses --      3.5830                 1.4015                 1.3432
 Frc consts  --      2.4497                 1.1492                 1.4374
 IR Inten    --     17.1756                13.5551                 0.0726

                      7                      8                      9
                     A'                     A'                     A"
 Frequencies --   1445.4787              1480.3541              1501.7986
 Red. masses --      1.1660                 1.0534                 1.0316
 Frc consts  --      1.4354                 1.3601                 1.3708
 IR Inten    --      1.9803                 8.7227                 8.5016

                     10                     11                     12
                     A'                     A'                     A'
 Frequencies --   1649.3936              2998.4570              3079.5854
 Red. masses --      1.0832                 1.0502                 1.0843
 Frc consts  --      1.7362                 5.5633                 6.0586
 IR Inten    --     41.0745               106.1805                52.5995

                     13                     14                     15
                     A"                     A'                     A"
 Frequencies --   3116.5279              3519.8113              3592.7201
 Red. masses --      1.1033                 1.0504                 1.0921
 Frc consts  --      6.3137                 7.6670                 8.3055
 IR Inten    --     43.5190                 0.2887                 4.4108

 - Thermochemistry -
 -------------------
 Temperature   298.150 Kelvin.  Pressure   1.00000 Atm.
 Atom     1 has atomic number  1 and mass   1.00783

 Molecular mass:    31.04220 amu.
 Principal axes and moments of inertia in atomic units:
                           1         2         3
     Eigenvalues --    17.43567  78.75756  81.85859
           X           -0.05968  -0.00000   0.99822
           Y            0.99822   0.00000   0.05968
           Z           -0.00000   1.00000   0.00000
 This molecule is an asymmetric top.
 Rotational symmetry number  1.
 Rotational temperatures (Kelvin)      4.96763     1.09975     1.05809
 Rotational constants (GHZ):         103.50859    22.91515    22.04706
 Zero-point vibrational energy     168384.3 (Joules/Mol)
                                   40.24480 (Kcal/Mol)
 Warning -- explicit consideration of   1 degrees of freedom as
           vibrations may cause significant error
 Vibrational temperatures:    446.74  1254.25  1410.90  1549.89  1697.35
          (Kelvin)           1939.04  2079.72  2129.90  2160.75  2373.11
                             4314.11  4430.84  4483.99  5064.22  5169.12

 Zero-point correction=                           0.064134 (Hartree/Particle)
 Thermal correction to Energy=                    0.067547
 Thermal correction to Enthalpy=                  0.068492
 Thermal correction to Gibbs Free Energy=         0.041225
 Sum of electronic and zero-point Energies=            -95.718276
 Sum of electronic and thermal Energies=               -95.714863
 Sum of electronic and thermal Enthalpies=             -95.713919
 Sum of electronic and thermal Free Energies=          -95.741185

                     E (Thermal)             CV                S
                      KCal/Mol        Cal/Mol-Kelvin    Cal/Mol-Kelvin
 Total                   42.387              9.489             57.388
 Electronic               0.000              0.000              0.000
 Translational            0.889              2.981             36.231
 Rotational               0.889              2.981             19.358
 Vibrational             40.609              3.527              1.798
 Vibration     1          0.699              1.654              1.360

 Optimization completed.
    -- Stationary point found.
 Normal termination of Gaussian 16 at Tue Jul  2 17:46:29 2024.
