 Gaussian 16, Revision B.01,
 Gaussian 16:  ES64L-G16RevB.01 20-Dec-2017

 ----------------------------------------------------------------------
 #P PBE1PBE/def2TZVP opt freq EmpiricalDispersion=GD3 Int=(grid=99590)
 scrf=(iefpcm, solvent=water)
 ----------------------------------------------------------------------

 -------------------
 tfp-cf3-OH_product2
 -------------------
 Symbolic Z-matrix:
 Charge =  0 Multiplicity = 1

 SCF Done:  E(RPBE1PBE) =  -1040.84829621     A.U. after   12 cycles
 SCF Done:  E(RPBE1PBE) =  -1040.84844658     A.U. after    8 cycles
 SCF Done:  E(RPBE1PBE) =  -1040.84847746     A.U. after    8 cycles
 SCF Done:  E(RPBE1PBE) =  -1040.84848055     A.U. after    7 cycles
 Optimization completed.
    -- Stationary point found.
 Normal termination of Gaussian 16 at Wed Jun  5 17:19:55 2024.

 ----------------------------------------------------------------------
 #P Geom=AllCheck Guess=TCheck SCRF=Check GenChk RPBE1PBE/def2TZVP Freq
 ----------------------------------------------------------------------

 Structure from the checkpoint file:  "/scratch/Gau-3331.chk"
 -------------------
 tfp-cf3-OH_product2
 -------------------
 Charge =  0 Multiplicity = 1

                         Standard orientation:
 ---------------------------------------------------------------------
 Center     Atomic      Atomic             Coordinates (Angstroms)
 Number     Number       Type             X           Y           Z
 ---------------------------------------------------------------------
      1          6           0        2.146286   -0.000000   -0.003039
      2          6           0        1.428449    1.188825   -0.002343
      3          6           0        1.428449   -1.188825   -0.002343
      4          6           0        0.045394    1.188286   -0.007762
      5          6           0        0.045394   -1.188286   -0.007762
      6          6           0       -0.677985    0.000000   -0.030102
      7          8           0        3.495058   -0.000000    0.081602
      8          1           0        3.892788   -0.000000   -0.797836
      9          9           0        2.076321    2.345327    0.009777
     10          9           0        2.076321   -2.345327    0.009777
     11          9           0       -0.567053   -2.364442    0.020328
     12          9           0       -0.567053    2.364442    0.020328
     13          6           0       -2.185604    0.000000   -0.012351
     14          9           0       -2.695201    1.071526   -0.622604
     15          9           0       -2.695201   -1.071527   -0.622603
     16          9           0       -2.654306    0.000001    1.244912
 ---------------------------------------------------------------------

 SCF Done:  E(RPBE1PBE) =  -1040.84848055     A.U. after    1 cycles

 The electronic state is 1-A.
 Alpha  occ. eigenvalues --  -24.81912 -24.81912 -24.81840 -24.81840 -24.81640
 Alpha  occ. eigenvalues --  -24.81640 -24.81634 -19.25880 -10.49827 -10.35475
 Alpha  occ. eigenvalues --  -10.35474 -10.34243 -10.34243 -10.32927 -10.28987
 Alpha  occ. eigenvalues --   -1.37062  -1.30919  -1.30893  -1.29333  -1.29326
 Alpha  occ. eigenvalues --   -1.27732  -1.27554  -1.11930  -0.94063  -0.84396
 Alpha  occ. eigenvalues --   -0.81382  -0.75544  -0.70373  -0.69738  -0.64281
 Alpha  occ. eigenvalues --   -0.64142  -0.63321  -0.62671  -0.61241  -0.59179
 Alpha  occ. eigenvalues --   -0.57779  -0.57476  -0.55013  -0.54717  -0.53297
 Alpha  occ. eigenvalues --   -0.51443  -0.50677  -0.50627  -0.50057  -0.47769
 Alpha  occ. eigenvalues --   -0.47467  -0.46584  -0.46370  -0.45656  -0.45080
 Alpha  occ. eigenvalues --   -0.44330  -0.42852  -0.40985  -0.38606  -0.35735
 Alpha  occ. eigenvalues --   -0.29533  -0.27773
 Alpha virt. eigenvalues --   -0.04888  -0.01974  -0.00324   0.05894   0.06722
 Alpha virt. eigenvalues --    0.11085   0.12225   0.13043   0.13541   0.15542
 Alpha virt. eigenvalues --    0.17634   0.17873   0.19283   0.20619   0.20656

 Mulliken charges:
               1
     1  C    0.094241
     2  C    0.166879
     3  C    0.166879
     4  C    0.181452
     5  C    0.181452
     6  C   -0.078202
     7  O   -0.433163
     8  H    0.378785
     9  F   -0.168560
    10  F   -0.168560
    11  F   -0.163762
    12  F   -0.163762
    13  C    0.469038
    14  F   -0.152964
    15  F   -0.152964
    16  F   -0.156788
 Sum of Mulliken charges =  -0.00000

 Dipole moment (field-independent basis, Debye):
    X=              2.9877    Y=             -0.0000    Z=             -1.8891  Tot=              3.5348
 Quadrupole moment (field-independent basis, Debye-Ang):
   XX=            -78.5800   YY=            -87.0189   ZZ=            -76.1238
   XY=             -0.0000   XZ=             -7.1658   YZ=              0.0000

  Exact polarizability: 137.899  -0.000 122.370  -0.977  -0.000  66.982
 Approx polarizability: 155.751   0.000 153.018  -0.372  -0.000  78.503

 ******    2 imaginary frequencies (negative Signs) ******

                      1                      2                      3
                      A                      A                      A
 Frequencies --   -353.0913               -26.3814                75.5043
 Red. masses --      1.0866                18.5561                12.7294
 Frc consts  --      0.0798                 0.0076                 0.0428
 IR Inten    --    181.6223                 0.0328                 0.4846

                      4                      5                      6
                      A                      A                      A
 Frequencies --    129.3540               160.9374               182.3208
 Red. masses --     18.4517                11.1917                17.0737
 Frc consts  --      0.1819                 0.1708                 0.3344
 IR Inten    --      0.0848                 3.3301                 0.3138

                      7                      8                      9
                      A                      A                      A
 Frequencies --    196.1749               267.9285               292.1400
 Red. masses --     12.9159                12.9702                14.5615
 Frc consts  --      0.2929                 0.5486                 0.7322
 IR Inten    --      2.5270                 2.2260                 2.5644

                     10                     11                     12
                      A                      A                      A
 Frequencies --    294.1758               298.5232               309.0656
 Red. masses --     10.2634                17.6980                18.6466
 Frc consts  --      0.5233                 0.9292                 1.0494
 IR Inten    --      0.0000                 0.0039                 0.6498

                     13                     14                     15
                      A                      A                      A
 Frequencies --    344.8084               369.1838               396.9779
 Red. masses --     15.7797                14.5298                12.2794
 Frc consts  --      1.1054                 1.1668                 1.1401
 IR Inten    --      0.1260                 4.2758                 0.5212

                     16                     17                     18
                      A                      A                      A
 Frequencies --    444.0071               450.9170               506.4839
 Red. masses --     11.5244                14.8700                16.0268
 Frc consts  --      1.3386                 1.7814                 2.4223
 IR Inten    --      1.7221                 1.2186                 3.3072

                     19                     20                     21
                      A                      A                      A
 Frequencies --    549.4845               561.2164               601.9263
 Red. masses --     17.7350                13.3316                13.4276
 Frc consts  --      3.1549                 2.4740                 2.8664
 IR Inten    --      3.2178                 3.5425                 0.1073

                     22                     23                     24
                      A                      A                      A
 Frequencies --    683.0588               689.2032               723.3712
 Red. masses --      7.8853                12.2112                16.3702
 Frc consts  --      2.1676                 3.4175                 5.0469
 IR Inten    --     22.0457                 0.0186                78.5075

                     25                     26                     27
                      A                      A                      A
 Frequencies --    764.9029               798.9822               895.8806
 Red. masses --     11.4671                12.4384                14.6130
 Frc consts  --      3.9529                 4.6783                 6.9102
 IR Inten    --      0.0509                 1.5842               141.9769

                     28                     29                     30
                      A                      A                      A
 Frequencies --   1018.3552              1108.6460              1143.6163
 Red. masses --     14.1628                10.8333                12.5807
 Frc consts  --      8.6536                 7.8450                 9.6943
 IR Inten    --    488.3723                51.1802               447.4213

                     31                     32                     33
                      A                      A                      A
 Frequencies --   1172.3820              1190.5785              1204.8451
 Red. masses --     13.5946                13.1573                 1.8957
 Frc consts  --     11.0092                10.9884                 1.6214
 IR Inten    --     36.0286               133.2626               480.6367

                     34                     35                     36
                      A                      A                      A
 Frequencies --   1273.0315              1338.1978              1363.9596
 Red. masses --      3.1836                12.0017                10.8936
 Frc consts  --      3.0398                12.6629                11.9406
 IR Inten    --    149.7493                 4.4713               449.2367

                     37                     38                     39
                      A                      A                      A
 Frequencies --   1467.9009              1541.6276              1564.8072
 Red. masses --     11.9989                12.2845                 9.3933
 Frc consts  --     15.2330                17.2015                13.5516
 IR Inten    --     38.2065               876.8086                98.0172

                     40                     41                     42
                      A                      A                      A
 Frequencies --   1664.1768              1704.6903              3808.1649
 Red. masses --     12.0276                11.7137                 1.0662
 Frc consts  --     19.6259                20.0555                 9.1104
 IR Inten    --      3.2319               119.6132               239.0803

 - Thermochemistry -
 -------------------
 Temperature   298.150 Kelvin.  Pressure   1.00000 Atm.
 Atom     1 has atomic number  6 and mass  12.00000

 Molecular mass:   233.99156 amu.
 Principal axes and moments of inertia in atomic units:
                           1         2         3
     Eigenvalues --  2063.372303600.693925343.09620
           X            0.99999  -0.00000  -0.00346
           Y            0.00000   1.00000   0.00000
           Z            0.00346  -0.00000   0.99999
 This molecule is an asymmetric top.
 Rotational symmetry number  1.
 Warning -- assumption of classical behavior for rotation
           may cause significant error
 Rotational temperatures (Kelvin)      0.04198     0.02405     0.01621
 Rotational constants (GHZ):           0.87466     0.50122     0.33777
    2 imaginary frequencies ignored.
 Zero-point vibrational energy     200682.6 (Joules/Mol)
                                   47.96429 (Kcal/Mol)
 Warning -- explicit consideration of  19 degrees of freedom as
           vibrations may cause significant error
 Vibrational temperatures:    108.63   186.11   231.55   262.32   282.25
          (Kelvin)            385.49   420.32   423.25   429.51   444.68
                              496.10   531.17   571.16   638.83   648.77
                              728.72   790.59   807.47   866.04   982.77
                              991.61  1040.77  1100.52  1149.56  1288.97
                             1465.19  1595.09  1645.41  1686.80  1712.98
                             1733.50  1831.61  1925.37  1962.43  2111.98
                             2218.06  2251.41  2394.38  2452.67  5479.10

 Zero-point correction=                           0.076436 (Hartree/Particle)
 Thermal correction to Energy=                    0.087708
 Thermal correction to Enthalpy=                  0.088652
 Thermal correction to Gibbs Free Energy=         0.038973
 Sum of electronic and zero-point Energies=          -1040.772045
 Sum of electronic and thermal Energies=             -1040.760772
 Sum of electronic and thermal Enthalpies=           -1040.759828
 Sum of electronic and thermal Free Energies=        -1040.809507

                     E (Thermal)             CV                S
                      KCal/Mol        Cal/Mol-Kelvin    Cal/Mol-Kelvin
 Total                   55.038             42.313            104.558
 Electronic               0.000              0.000              0.000
 Translational            0.889              2.981             42.252
 Rotational               0.889              2.981             32.051
 Vibrational             53.260             36.351             30.255
 Vibration     1          0.599              1.965              4.004
 Vibration     2          0.612              1.924              2.956
 Vibration     3          0.622              1.890              2.539
 Vibration     4          0.630              1.864              2.305
 Vibration     5          0.636              1.845              2.169
 Vibration     6          0.673              1.732              1.610
 Vibration     7          0.688              1.688              1.462
 Vibration     8          0.689              1.685              1.450
 Vibration     9          0.692              1.676              1.425
 Vibration    10          0.698              1.656              1.367
 Vibration    11          0.723              1.586              1.190
 Vibration    12          0.741              1.536              1.083
 Vibration    13          0.763              1.477              0.974
 Vibration    14          0.804              1.374              0.814
 Vibration    15          0.810              1.359              0.793
 Vibration    16          0.862              1.236              0.642
 Vibration    17          0.905              1.141              0.545
 Vibration    18          0.917              1.115              0.521
 Vibration    19          0.960              1.028              0.446

 Optimization completed.
    -- Stationary point found.
 Normal termination of Gaussian 16 at Wed Jun  5 17:28:59 2024.
