 Gaussian 16, Revision B.01,
 Gaussian 16:  ES64L-G16RevB.01 20-Dec-2017

 ----------------------------------------------------------------------
 #P PBE1PBE/def2TZVP opt=(calcfc, ts, noeigentest) freq EmpiricalDisper
 sion=GD3 Int=(grid=99590) scrf=(iefpcm, solvent=water)
 ----------------------------------------------------------------------

 ----------
 x=chf2 ts1
 ----------
 Symbolic Z-matrix:
 Charge =  0 Multiplicity = 1

 SCF Done:  E(RPBE1PBE) =  -1249.86569572     A.U. after   12 cycles
 SCF Done:  E(RPBE1PBE) =  -1249.86798717     A.U. after   11 cycles
 SCF Done:  E(RPBE1PBE) =  -1249.86848605     A.U. after   10 cycles
 SCF Done:  E(RPBE1PBE) =  -1249.86821123     A.U. after   10 cycles
 SCF Done:  E(RPBE1PBE) =  -1249.86863254     A.U. after   10 cycles
 SCF Done:  E(RPBE1PBE) =  -1249.86842120     A.U. after   10 cycles
 SCF Done:  E(RPBE1PBE) =  -1249.86829291     A.U. after   11 cycles
 SCF Done:  E(RPBE1PBE) =  -1249.86872681     A.U. after    9 cycles
 SCF Done:  E(RPBE1PBE) =  -1249.86872611     A.U. after    9 cycles
 SCF Done:  E(RPBE1PBE) =  -1249.86871681     A.U. after   10 cycles
 SCF Done:  E(RPBE1PBE) =  -1249.86875256     A.U. after    9 cycles
 SCF Done:  E(RPBE1PBE) =  -1249.86875829     A.U. after    9 cycles
 SCF Done:  E(RPBE1PBE) =  -1249.86875790     A.U. after    9 cycles
 SCF Done:  E(RPBE1PBE) =  -1249.86875490     A.U. after    9 cycles
 SCF Done:  E(RPBE1PBE) =  -1249.86875920     A.U. after    8 cycles
 SCF Done:  E(RPBE1PBE) =  -1249.86875908     A.U. after    7 cycles
 Optimization completed.
    -- Stationary point found.
 Normal termination of Gaussian 16 at Fri Feb 14 13:07:50 2025.

 ----------------------------------------------------------------------
 #P Geom=AllCheck Guess=TCheck SCRF=Check GenChk RPBE1PBE/def2TZVP Freq
 ----------------------------------------------------------------------

 Structure from the checkpoint file:  "/scratch/Gau-64244.chk"
 ----------
 x=chf2 ts1
 ----------
 Charge =  0 Multiplicity = 1

                         Standard orientation:
 ---------------------------------------------------------------------
 Center     Atomic      Atomic             Coordinates (Angstroms)
 Number     Number       Type             X           Y           Z
 ---------------------------------------------------------------------
      1          1           0       -1.660370    2.180026   -0.363851
      2          8           0       -1.551978   -0.313923    1.259180
      3          6           0       -1.884902   -0.096513    0.109411
      4          7           0       -2.481602    1.687725   -0.026511
      5          1           0       -3.206368    1.809555   -0.727377
      6          6           0       -2.906414    2.194843    1.274075
      7          1           0       -3.872751    1.764404    1.528759
      8          1           0       -2.174117    1.881727    2.017444
      9          1           0       -2.981319    3.282930    1.267973
     10          6           0       -3.100856   -0.779215   -0.527708
     11          8           0       -0.899551   -0.049965   -0.937959
     12          6           0        0.391846   -0.048051   -0.530359
     13          6           0        1.127885    1.128546   -0.519479
     14          6           0        1.034766   -1.224224   -0.165193
     15          6           0        2.466323    1.140532   -0.169359
     16          6           0        2.371646   -1.226292    0.192378
     17          6           0        3.089771   -0.042119    0.189160
     18          9           0        0.538826    2.275147   -0.852380
     19          9           0        0.367237   -2.368657   -0.168045
     20          9           0        3.149908    2.276662   -0.172648
     21          9           0        2.969790   -2.359320    0.534833
     22          9           0        4.370669   -0.041686    0.526848
     23          9           0       -2.904013   -2.118824   -0.489852
     24          1           0       -3.281515   -0.481129   -1.563181
     25          9           0       -4.201360   -0.510601    0.214408
 ---------------------------------------------------------------------

 SCF Done:  E(RPBE1PBE) =  -1249.86875908     A.U. after    1 cycles

 The electronic state is 1-A.
 Alpha  occ. eigenvalues --  -24.82247 -24.82057 -24.81927 -24.81843 -24.81518
 Alpha  occ. eigenvalues --  -24.79517 -24.79284 -19.26369 -19.18028 -14.44187
 Alpha  occ. eigenvalues --  -10.39122 -10.37690 -10.34770 -10.34554 -10.34468
 Alpha  occ. eigenvalues --  -10.34433 -10.34277 -10.32085 -10.25410  -1.31353
 Alpha  occ. eigenvalues --   -1.30751  -1.30566  -1.30143  -1.29352  -1.28921
 Alpha  occ. eigenvalues --   -1.24550  -1.14419  -1.05617  -0.96748  -0.93433
 Alpha  occ. eigenvalues --   -0.82206  -0.81480  -0.77315  -0.71437  -0.70448
 Alpha  occ. eigenvalues --   -0.70144  -0.65500  -0.63237  -0.62985  -0.60756
 Alpha  occ. eigenvalues --   -0.59228  -0.58747  -0.58152  -0.57981  -0.57236
 Alpha  occ. eigenvalues --   -0.56323  -0.55668  -0.54620  -0.53150  -0.52422
 Alpha  occ. eigenvalues --   -0.52259  -0.50355  -0.50158  -0.49636  -0.48373
 Alpha  occ. eigenvalues --   -0.47881  -0.47265  -0.46628  -0.45798  -0.45091
 Alpha  occ. eigenvalues --   -0.44769  -0.43519  -0.42806  -0.42048  -0.40768
 Alpha  occ. eigenvalues --   -0.40626  -0.38936  -0.37693  -0.34414  -0.31132
 Alpha  occ. eigenvalues --   -0.28646  -0.27732  -0.27637
 Alpha virt. eigenvalues --   -0.02540  -0.01802  -0.01503   0.03108   0.04254
 Alpha virt. eigenvalues --    0.07171   0.07651   0.08410   0.09852   0.11161
 Alpha virt. eigenvalues --    0.11801   0.12136   0.13471   0.14066   0.15137

 Mulliken charges:
               1
     1  H    0.262359
     2  O   -0.444173
     3  C    0.298215
     4  N   -0.298755
     5  H    0.278979
     6  C   -0.303821
     7  H    0.156079
     8  H    0.156258
     9  H    0.160948
    10  C    0.213976
    11  O   -0.292196
    12  C    0.121540
    13  C    0.179954
    14  C    0.180689
    15  C    0.144867
    16  C    0.152373
    17  C    0.164663
    18  F   -0.187366
    19  F   -0.170154
    20  F   -0.169380
    21  F   -0.170069
    22  F   -0.167309
    23  F   -0.195619
    24  H    0.123567
    25  F   -0.195625
 Sum of Mulliken charges =  -0.00000

 Dipole moment (field-independent basis, Debye):
    X=             -3.0610    Y=              6.6709    Z=             -3.2129  Tot=              8.0121
 Quadrupole moment (field-independent basis, Debye-Ang):
   XX=           -100.8532   YY=           -102.3180   ZZ=           -102.7697
   XY=            -17.4069   XZ=              5.7491   YZ=              2.8349

  Exact polarizability: 186.614  -6.146 174.086  10.118  -6.698 115.152
 Approx polarizability: 200.927  -3.939 204.465  17.296 -13.774 135.475

 ******    1 imaginary frequencies (negative Signs) ******

                      1                      2                      3
                      A                      A                      A
 Frequencies --   -130.1191                24.9802                39.4994
 Red. masses --      5.4552                 6.8593                 4.1893
 Frc consts  --      0.0544                 0.0025                 0.0039
 IR Inten    --    183.3736                 5.5048                 0.9454

                      4                      5                      6
                      A                      A                      A
 Frequencies --     53.5240                61.8528                85.0384
 Red. masses --      7.4972                 4.8854                 8.3615
 Frc consts  --      0.0127                 0.0110                 0.0356
 IR Inten    --      5.2727                 1.0869                12.5501

                      7                      8                      9
                      A                      A                      A
 Frequencies --    137.7061               140.5811               155.1974
 Red. masses --     11.7953                16.1067                 1.3569
 Frc consts  --      0.1318                 0.1875                 0.0193
 IR Inten    --      0.6385                 0.3408                 7.3577

                     10                     11                     12
                      A                      A                      A
 Frequencies --    160.8058               186.7120               207.5222
 Red. masses --      8.3618                15.5644                 2.6224
 Frc consts  --      0.1274                 0.3197                 0.0665
 IR Inten    --      3.5171                 1.3215                15.3241

                     13                     14                     15
                      A                      A                      A
 Frequencies --    232.8818               251.3874               272.3355
 Red. masses --     10.7154                 4.7677                 8.3027
 Frc consts  --      0.3424                 0.1775                 0.3628
 IR Inten    --      3.6057                 7.2224                21.1090

                     16                     17                     18
                      A                      A                      A
 Frequencies --    277.5483               283.2078               299.3061
 Red. masses --     14.3381                10.6589                13.9605
 Frc consts  --      0.6508                 0.5037                 0.7369
 IR Inten    --      5.3251                13.7084                15.4717

                     19                     20                     21
                      A                      A                      A
 Frequencies --    313.0405               346.6723               368.3818
 Red. masses --     14.2091                13.7998                10.5444
 Frc consts  --      0.8204                 0.9771                 0.8431
 IR Inten    --      6.6202                 2.0980                 0.5772

                     22                     23                     24
                      A                      A                      A
 Frequencies --    378.3746               384.9154               408.3207
 Red. masses --      8.4110                12.6628                10.1675
 Frc consts  --      0.7095                 1.1054                 0.9988
 IR Inten    --     10.3073                 0.1290                12.1584

                     25                     26                     27
                      A                      A                      A
 Frequencies --    453.2134               480.6632               554.6048
 Red. masses --     15.4100                13.9523                 8.6238
 Frc consts  --      1.8649                 1.8992                 1.5628
 IR Inten    --      0.4452                 3.3312                24.5407

                     28                     29                     30
                      A                      A                      A
 Frequencies --    588.2750               619.5440               646.3433
 Red. masses --     15.2805                 8.3387                 1.9032
 Frc consts  --      3.1156                 1.8858                 0.4684
 IR Inten    --      3.0493                31.7033               104.2089

                     31                     32                     33
                      A                      A                      A
 Frequencies --    652.9988               674.0913               714.7359
 Red. masses --     12.9000                12.1258                11.7148
 Frc consts  --      3.2409                 3.2464                 3.5260
 IR Inten    --     33.0212                 0.1946                10.0195

                     34                     35                     36
                      A                      A                      A
 Frequencies --    755.5730               788.2067               803.1882
 Red. masses --      3.5011                 9.8123                11.8046
 Frc consts  --      1.1776                 3.5917                 4.4868
 IR Inten    --    206.4902                24.5075                 4.0203

                     37                     38                     39
                      A                      A                      A
 Frequencies --    889.8934               982.3457              1019.3825
 Red. masses --      6.6885                 1.4754                10.8242
 Frc consts  --      3.1207                 0.8389                 6.6271
 IR Inten    --    253.6283                70.9858               488.5624

                     40                     41                     42
                      A                      A                      A
 Frequencies --   1027.4500              1045.7811              1069.1115
 Red. masses --      4.0688                 2.0131                 1.7536
 Frc consts  --      2.5307                 1.2972                 1.1809
 IR Inten    --    371.1012               266.0873               346.0212

                     43                     44                     45
                      A                      A                      A
 Frequencies --   1080.0534              1103.3429              1168.1815
 Red. masses --      5.2680                 7.7859                 3.9407
 Frc consts  --      3.6207                 5.5844                 3.1684
 IR Inten    --     32.4387               337.2626                25.5019

                     46                     47                     48
                      A                      A                      A
 Frequencies --   1176.0539              1189.1848              1240.1476
 Red. masses --     11.9278                 9.3431                 1.3709
 Frc consts  --      9.7200                 7.7847                 1.2423
 IR Inten    --      0.2557                18.9943                53.8667

                     49                     50                     51
                      A                      A                      A
 Frequencies --   1333.8185              1337.8094              1341.2130
 Red. masses --     10.1624                 1.3385                10.8954
 Frc consts  --     10.6522                 1.4115                11.5475
 IR Inten    --      1.5814                 5.9313                 4.6344

                     52                     53                     54
                      A                      A                      A
 Frequencies --   1378.8757              1410.1248              1442.0164
 Red. masses --      1.1878                 1.5346                 1.1791
 Frc consts  --      1.3306                 1.7979                 1.4446
 IR Inten    --      3.4661                28.2487                 9.7521

                     55                     56                     57
                      A                      A                      A
 Frequencies --   1485.1204              1486.6214              1519.0895
 Red. masses --      1.0325                 1.0401                12.4657
 Frc consts  --      1.3417                 1.3544                16.9486
 IR Inten    --     12.9763                18.4982                35.8233

                     58                     59                     60
                      A                      A                      A
 Frequencies --   1558.5070              1563.5587              1638.9811
 Red. masses --     12.2081                12.2614                 1.0852
 Frc consts  --     17.4709                17.6611                 1.7175
 IR Inten    --    582.6122               516.7272                40.1736

                     61                     62                     63
                      A                      A                      A
 Frequencies --   1689.9347              1695.2609              1710.9562
 Red. masses --     12.0034                11.8777                11.8851
 Frc consts  --     20.1973                20.1120                20.4989
 IR Inten    --     47.6559               244.1973               152.9823

                     64                     65                     66
                      A                      A                      A
 Frequencies --   3075.0929              3111.0757              3156.1563
 Red. masses --      1.0338                 1.0882                 1.1040
 Frc consts  --      5.7600                 6.2055                 6.4795
 IR Inten    --     29.5647                28.0444                 6.7654

                     67                     68                     69
                      A                      A                      A
 Frequencies --   3177.8743              3509.6373              3584.1323
 Red. masses --      1.1053                 1.0513                 1.0950
 Frc consts  --      6.5767                 7.6298                 8.2879
 IR Inten    --      8.6997                37.8723                85.2390

 - Thermochemistry -
 -------------------
 Temperature   298.150 Kelvin.  Pressure   1.00000 Atm.
 Atom     1 has atomic number  1 and mass   1.00783

 Molecular mass:   293.02868 amu.
 Principal axes and moments of inertia in atomic units:
                           1         2         3
     Eigenvalues --  2892.646087391.017129480.11325
           X            0.99954  -0.02994  -0.00557
           Y            0.03005   0.99934   0.02020
           Z            0.00496  -0.02036   0.99978
 This molecule is an asymmetric top.
 Rotational symmetry number  1.
 Warning -- assumption of classical behavior for rotation
           may cause significant error
 Rotational temperatures (Kelvin)      0.02994     0.01172     0.00914
 Rotational constants (GHZ):           0.62391     0.24418     0.19037
    1 imaginary frequencies ignored.
 Zero-point vibrational energy     406718.4 (Joules/Mol)
                                   97.20804 (Kcal/Mol)
 Warning -- explicit consideration of  28 degrees of freedom as
           vibrations may cause significant error
 Vibrational temperatures:     35.94    56.83    77.01    88.99   122.35
          (Kelvin)            198.13   202.26   223.29   231.36   268.64
                              298.58   335.07   361.69   391.83   399.33
                              407.47   430.63   450.40   498.78   530.02
                              544.40   553.81   587.48   652.07   691.57
                              797.95   846.40   891.39   929.94   939.52
                              969.87  1028.35  1087.10  1134.05  1155.61
                             1280.36  1413.38  1466.66  1478.27  1504.65
                             1538.21  1553.96  1587.46  1680.75  1692.08
                             1710.97  1784.30  1919.07  1924.81  1929.71
                             1983.89  2028.86  2074.74  2136.76  2138.92
                             2185.63  2242.34  2249.61  2358.13  2431.44
                             2439.10  2461.68  4424.37  4476.14  4541.00
                             4572.25  5049.59  5156.77

 Zero-point correction=                           0.154911 (Hartree/Particle)
 Thermal correction to Energy=                    0.172614
 Thermal correction to Enthalpy=                  0.173558
 Thermal correction to Gibbs Free Energy=         0.107848
 Sum of electronic and zero-point Energies=          -1249.713848
 Sum of electronic and thermal Energies=             -1249.696145
 Sum of electronic and thermal Enthalpies=           -1249.695201
 Sum of electronic and thermal Free Energies=        -1249.760911

                     E (Thermal)             CV                S
                      KCal/Mol        Cal/Mol-Kelvin    Cal/Mol-Kelvin
 Total                  108.317             63.024            138.299
 Electronic               0.000              0.000              0.000
 Translational            0.889              2.981             42.923
 Rotational               0.889              2.981             33.671
 Vibrational            106.539             57.062             61.705
 Vibration     1          0.593              1.985              6.193
 Vibration     2          0.594              1.981              5.284
 Vibration     3          0.596              1.976              4.683
 Vibration     4          0.597              1.973              4.397
 Vibration     5          0.601              1.960              3.771
 Vibration     6          0.614              1.916              2.836
 Vibration     7          0.615              1.913              2.796
 Vibration     8          0.620              1.897              2.608
 Vibration     9          0.622              1.890              2.540
 Vibration    10          0.632              1.858              2.260
 Vibration    11          0.641              1.829              2.065
 Vibration    12          0.654              1.791              1.857
 Vibration    13          0.663              1.760              1.721
 Vibration    14          0.675              1.724              1.581
 Vibration    15          0.679              1.715              1.549
 Vibration    16          0.682              1.705              1.514
 Vibration    17          0.692              1.675              1.421
 Vibration    18          0.701              1.649              1.346
 Vibration    19          0.725              1.582              1.181
 Vibration    20          0.741              1.537              1.087
 Vibration    21          0.749              1.516              1.046
 Vibration    22          0.754              1.502              1.020
 Vibration    23          0.773              1.452              0.933
 Vibration    24          0.812              1.354              0.786
 Vibration    25          0.837              1.293              0.708
 Vibration    26          0.910              1.130              0.535
 Vibration    27          0.945              1.057              0.470
 Vibration    28          0.980              0.991              0.417

 Optimization completed.
    -- Stationary point found.
 Normal termination of Gaussian 16 at Fri Feb 14 13:31:18 2025.
